 Entering Gaussian System, Link 0=gdv
 Input=H2.gjf
 Output=H2.log
 Initial command:
 /Volumes/gaussian/gdv_j29p/gdv/l1.exe "/Users/marco/scratch/Gau-14980.inp" -scrdir="/Users/marco/scratch,93952409600"
 Entering Link 1 = /Volumes/gaussian/gdv_j29p/gdv/l1.exe PID=     14981.
  
 Copyright (c) 1988-2024, Gaussian, Inc.  All Rights Reserved.
  
 This is the private, development version of
 the Gaussian(R) DV system of programs. It is based on
 the Gaussian(R) 16 system (copyright 2016, Gaussian, Inc.),
 the Gaussian(R) 09 system (copyright 2009, Gaussian, Inc.),
 the Gaussian(R) 03 system (copyright 2003, Gaussian, Inc.),
 the Gaussian(R) 98 system (copyright 1998, Gaussian, Inc.),
 the Gaussian(R) 94 system (copyright 1995, Gaussian, Inc.),
 the Gaussian 92(TM) system (copyright 1992, Gaussian, Inc.),
 the Gaussian 90(TM) system (copyright 1990, Gaussian, Inc.),
 the Gaussian 88(TM) system (copyright 1988, Gaussian, Inc.),
 the Gaussian 86(TM) system (copyright 1986, Carnegie Mellon
 University), and the Gaussian 82(TM) system (copyright 1983,
 Carnegie Mellon University). Gaussian is a federally registered
 trademark of Gaussian, Inc.
  
 This software contains proprietary and confidential information,
 including trade secrets, belonging to Gaussian, Inc.
  
 This software is provided under written license and may be
 used, copied, transmitted, or stored only in accord with that
 written license.
  
 The following legend is applicable only to US Government
 contracts under FAR:
  
                    RESTRICTED RIGHTS LEGEND
  
 Use, reproduction and disclosure by the US Government is
 subject to restrictions as set forth in subparagraphs (a)
 and (c) of the Commercial Computer Software - Restricted
 Rights clause in FAR 52.227-19.
  
 Gaussian, Inc.
 340 Quinnipiac St., Bldg. 40, Wallingford CT 06492
  
  
 ---------------------------------------------------------------
 Warning -- This program may not be used in any manner that
 competes with the business of Gaussian, Inc. or will provide
 assistance to any competitor of Gaussian, Inc.  The licensee
 of this program is prohibited from giving any competitor of
 Gaussian, Inc. access to this program.  By using this program,
 the user acknowledges that Gaussian, Inc. is engaged in the
 business of creating and licensing software in the field of
 computational chemistry and represents and warrants to the
 licensee that it is not a competitor of Gaussian, Inc. and that
 it will not use this program in any manner prohibited above.
 ---------------------------------------------------------------
  

 Cite this work as:
 Gaussian Development Version, Revision J.29+,
 M. J. Frisch, G. W. Trucks, G. Scalmani, J. R. Cheeseman, X. Li, 
 J. Bloino, B. G. Janesko, A. V. Marenich, J. Zheng, F. Lipparini, 
 A. Jenkins, A. Liu, H. Liu, H. B. Schlegel, G. E. Scuseria, 
 M. A. Robb, V. Barone, G. A. Petersson, H. Nakatsuji, B. Mennucci, 
 C. Adamo, N. Rega, M. Caricato, H. P. Hratchian, J. V. Ortiz, 
 F. Pawlowski, A. F. Izmaylov, H. Hu, C. Liao, J. L. Sonnenberg, 
 D. Williams-Young, F. Ding, R. Gomperts, F. Egidi, J. Goings, 
 B. Peng, A. Petrone, T. Henderson, D. Ranasinghe, V. G. Zakrzewski, 
 J. Gao, G. Zheng, W. Liang, M. Hada, M. Ehara, K. Toyota, R. Fukuda, 
 J. Hasegawa, M. Ishida, T. Nakajima, Y. Honda, O. Kitao, H. Nakai, 
 T. Vreven, K. Throssell, J. A. Montgomery, Jr., J. E. Peralta, 
 F. Ogliaro, M. J. Bearpark, J. J. Heyd, E. N. Brothers, K. N. Kudin, 
 V. N. Staroverov, T. A. Keith, R. Kobayashi, J. Normand, 
 K. Raghavachari, A. P. Rendell, J. C. Burant, S. S. Iyengar, 
 M. Cossi, J. M. Millam, M. Klene, R. Cammi, R. L. Martin, O. Farkas, 
 J. B. Foresman, and D. J. Fox, Gaussian, Inc., Wallingford CT, 2024.
 
 **********************************************
 Gaussian DV:  Apple M1-GDVRevJ.29+  8-Aug-2024
                  19-Sep-2024 
 **********************************************
 ----------------------------------------------------------------------
 #p HF/3-21g nosymm output=(baf) extralinks=l316 noraff scf=conventiona
 l test
 ----------------------------------------------------------------------
 1/37=-1,38=1,172=1/1;
 2/12=2,15=1/2;
 3/5=5,25=20,28=1,30=1,160=2000000/1,2,3,8,20,16;
 4//1;
 5/5=1,29=1/2;
 6/7=2,8=2,9=2,10=2,28=1,125=2000000/1;
 99/5=1,6=100000,9=1,125=2000000/99;
 Leave Link    1 at Thu Sep 19 14:23:12 2024, MaxMem=           0 cpu:               0.0 elap:               0.0
 (Enter /Volumes/gaussian/gdv_j29p/gdv/l101.exe)
 -----
 pippo
 -----
 Symbolic Z-matrix:
 Charge =     0 Multiplicity =     1
 1                    0     0.        0.        0. 
 1                    0     0.74      0.        0. 
 
 ITRead=  0  0
 MicOpt= -1 -1
 NAtoms=      2 NQM=        2 NQMF=       0 NMMI=      0 NMMIF=      0
                NMic=       0 NMicF=      0.
                    Isotopes and Nuclear Properties:
 (Nuclear quadrupole moments (NQMom) in fm**2, nuclear magnetic moments (NMagM)
  in nuclear magnetons)

  Atom         1           2
 IAtWgt=           1           1
 AtmWgt=   1.0078250   1.0078250
 NucSpn=           1           1
 AtZEff=   -0.000000   -0.000000
 NQMom=    0.0000000   0.0000000
 NMagM=    2.7928460   2.7928460
 AtZNuc=   1.0000000   1.0000000
 Leave Link  101 at Thu Sep 19 14:23:12 2024, MaxMem=   104857600 cpu:               0.0 elap:               0.0
 (Enter /Volumes/gaussian/gdv_j29p/gdv/l202.exe)
                          Input orientation:                          
 ---------------------------------------------------------------------
 Center     Atomic      Atomic             Coordinates (Angstroms)
 Number     Number       Type             X           Y           Z
 ---------------------------------------------------------------------
      1          1           0        0.000000    0.000000    0.000000
      2          1           0        0.740000    0.000000    0.000000
 ---------------------------------------------------------------------
 Symmetry turned off by external request.
 Stoichiometry    H2
 Framework group  D*H[C*(H.H)]
 Deg. of freedom     1
 Full point group                 D*H     NOp   8
 Rotational constants (GHZ):           0.0000000        1831.4649542        1831.4649542
 Leave Link  202 at Thu Sep 19 14:23:13 2024, MaxMem=   104857600 cpu:               0.0 elap:               0.0
 (Enter /Volumes/gaussian/gdv_j29p/gdv/l301.exe)
 Standard basis: 3-21G (6D, 7F)
 Ernie: Thresh=  0.10000D-02 Tol=  0.10000D-05 Strict=F.
     4 basis functions,     6 primitive gaussians,     4 cartesian basis functions
     1 alpha electrons        1 beta electrons
       nuclear repulsion energy         0.7151043391 Hartrees.
 IExCor=         0 DFT=F Ex=HF Corr=None N6=None ScaHFX=  1.000000
 ScaDFX=  1.000000  1.000000  1.000000  1.000000  1.000000  0.000000
 ScaDFX=  0.000000  0.000000  0.000000  0.000000  0.000000  0.000000
 Grid=UltraFine IRanWt=     -1 IRanGd=            0 ICorTp=0 IEDCtl=  2004
 NAtoms=    2 NActive=    2 NUniq=    2 SFac= 1.00D+00 NAtFMM=   60 NAOKFM=F Big=F
 Integral buffers will be    131072 words long.
 Regular integral format.
 Two-electron integral symmetry is turned off.
 Leave Link  301 at Thu Sep 19 14:23:13 2024, MaxMem=   104857600 cpu:               0.0 elap:               0.0
 (Enter /Volumes/gaussian/gdv_j29p/gdv/l302.exe)
 NPDir=0 NMtPBC=     1 NCelOv=     1 NCel=       1 NClECP=     1 NCelD=      1
         NCelK=      1 NCelE2=     1 NClLst=     1 CellRange=     0.0.
 One-electron integrals computed using PRISM.
 NBasis=     4 RedAO= T EigKep=  1.08D-01  NBF=     4
 NBsUse=     4 1.00D-06 EigRej= -1.00D+00 NBFU=     4
 Leave Link  302 at Thu Sep 19 14:23:13 2024, MaxMem=   104857600 cpu:               0.0 elap:               0.0
 (Enter /Volumes/gaussian/gdv_j29p/gdv/l303.exe)
 DipDrv:  MaxL=1.
 Leave Link  303 at Thu Sep 19 14:23:13 2024, MaxMem=   104857600 cpu:               0.0 elap:               0.0
 (Enter /Volumes/gaussian/gdv_j29p/gdv/l308.exe)
 Leave Link  308 at Thu Sep 19 14:23:13 2024, MaxMem=   104857600 cpu:               0.0 elap:               0.0
 (Enter /Volumes/gaussian/gdv_j29p/gdv/l320.exe)
 Enter DskPsm, NBasis=   4 NBas6D=   4 NShell=   4 IDoSP=4 IDer=0 ISMode=0 IR12Ty=1.
 Out2e will use a cutoff of  1.00D-10
 FoFCou: FMM=F IPFlag=           0 FMFlag=      100000 FMFlg1=           0
         NFxFlg=           0 DoJE=F BraDBF=F KetDBF=F FulRan=T
         wScrn=  0.000000 ICntrl=   1000600 IOpCl=  9 I1Cent=           0 NGrid=           0
         NMat0=    0 NMatS0=      0 NMatT0=    0 NMatD0=    0 NMtDS0=    0 NMtDT0=    0
 Symmetry not used in FoFCou.
           55 integrals produced for a total of           55.
 Leave Link  320 at Thu Sep 19 14:23:13 2024, MaxMem=   104857600 cpu:               0.0 elap:               0.0
 (Enter /Volumes/gaussian/gdv_j29p/gdv/l316.exe)



 *** Dumping Two-Electron integrals ***



 ISMode= 0 Mode= 1 IBase=         1 IBasD=         1    131073
 DBase=         0 DBasD=         0         0 IReset=         2    131070
 IntCnt=        55 ITotal=        55 NWIIB=    131072 ISym2E=0
 I=  4 J=  1 K=  3 L=  2 Int=  0.164481975514D+00
 I=  4 J=  3 K=  2 L=  1 Int=  0.253298418330D+00
 I=  4 J=  2 K=  3 L=  1 Int=  0.209690733807D+00
 I=  3 J=  3 K=  3 L=  3 Int=  0.114014486515D+01
 I=  3 J=  3 K=  3 L=  1 Int=  0.382945859912D+00
 I=  3 J=  3 K=  1 L=  1 Int=  0.675455583254D+00
 I=  3 J=  1 K=  3 L=  1 Int=  0.171904351281D+00
 I=  3 J=  1 K=  1 L=  1 Int=  0.382945859912D+00
 I=  1 J=  1 K=  1 L=  1 Int=  0.114014486515D+01
 I=  4 J=  3 K=  3 L=  3 Int=  0.611401885448D+00
 I=  3 J=  3 K=  3 L=  2 Int=  0.448160878093D+00
 I=  4 J=  1 K=  3 L=  3 Int=  0.341332741107D+00
 I=  3 J=  3 K=  2 L=  1 Int=  0.414017844654D+00
 I=  4 J=  3 K=  3 L=  1 Int=  0.216826287990D+00
 I=  3 J=  2 K=  3 L=  1 Int=  0.170286375630D+00
 I=  4 J=  1 K=  3 L=  1 Int=  0.170286375630D+00
 I=  3 J=  1 K=  2 L=  1 Int=  0.216826287990D+00
 I=  4 J=  3 K=  1 L=  1 Int=  0.414017844654D+00
 I=  3 J=  2 K=  1 L=  1 Int=  0.341332741107D+00
 I=  4 J=  1 K=  1 L=  1 Int=  0.448160878093D+00
 I=  2 J=  1 K=  1 L=  1 Int=  0.611401885448D+00
 I=  4 J=  4 K=  3 L=  3 Int=  0.626369765482D+00
 I=  4 J=  2 K=  3 L=  3 Int=  0.498444229231D+00
 I=  3 J=  3 K=  2 L=  2 Int=  0.520211873817D+00
 I=  4 J=  4 K=  3 L=  1 Int=  0.239083902447D+00
 I=  3 J=  1 K=  2 L=  2 Int=  0.239083902447D+00
 I=  4 J=  4 K=  1 L=  1 Int=  0.520211873817D+00
 I=  4 J=  2 K=  1 L=  1 Int=  0.498444229231D+00
 I=  2 J=  2 K=  1 L=  1 Int=  0.626369765482D+00
 I=  4 J=  3 K=  4 L=  3 Int=  0.345151518259D+00
 I=  4 J=  3 K=  3 L=  2 Int=  0.253852261497D+00
 I=  4 J=  3 K=  4 L=  1 Int=  0.205234419781D+00
 I=  3 J=  2 K=  3 L=  2 Int=  0.190436864662D+00
 I=  3 J=  2 K=  2 L=  1 Int=  0.205234419781D+00
 I=  4 J=  1 K=  4 L=  1 Int=  0.190436864662D+00
 I=  4 J=  1 K=  2 L=  1 Int=  0.253852261497D+00
 I=  2 J=  1 K=  2 L=  1 Int=  0.345151518259D+00
 I=  4 J=  4 K=  4 L=  3 Int=  0.380328568600D+00
 I=  4 J=  3 K=  4 L=  2 Int=  0.304362316185D+00
 I=  4 J=  3 K=  2 L=  2 Int=  0.322267116289D+00
 I=  4 J=  4 K=  3 L=  2 Int=  0.281309352425D+00
 I=  4 J=  2 K=  3 L=  2 Int=  0.231958665151D+00
 I=  3 J=  2 K=  2 L=  2 Int=  0.251835426548D+00
 I=  4 J=  4 K=  4 L=  1 Int=  0.251835426548D+00
 I=  4 J=  2 K=  4 L=  1 Int=  0.231958665151D+00
 I=  4 J=  1 K=  2 L=  2 Int=  0.281309352425D+00
 I=  4 J=  4 K=  2 L=  1 Int=  0.322267116289D+00
 I=  4 J=  2 K=  2 L=  1 Int=  0.304362316185D+00
 I=  2 J=  2 K=  2 L=  1 Int=  0.380328568600D+00
 I=  4 J=  4 K=  4 L=  4 Int=  0.482956275369D+00
 I=  4 J=  4 K=  4 L=  2 Int=  0.392019184518D+00
 I=  4 J=  4 K=  2 L=  2 Int=  0.430989820968D+00
 I=  4 J=  2 K=  4 L=  2 Int=  0.337542767814D+00
 I=  4 J=  2 K=  2 L=  2 Int=  0.392019184518D+00
 I=  2 J=  2 K=  2 L=  2 Int=  0.482956275369D+00
 Leave Link  316 at Thu Sep 19 14:23:13 2024, MaxMem=   104857600 cpu:               0.0 elap:               0.0
 (Enter /Volumes/gaussian/gdv_j29p/gdv/l401.exe)
 ExpMin= 1.83D-01 ExpMax= 5.45D+00 ExpMxC= 5.45D+00 IAcc=3 Grid=UltraFine AccDes= 0.00D+00
 Harris functional with IExCor= 2005 and Grid=UltraFine diagonalized for initial guess.
 HarFok:  IExCor=    2005 AccDes= 0.00D+00 Grid=UltraFine IDoV= 1 UseB2=F ITyADJ=14 ICtDFT=  3500011
 FoFCou: FMM=F IPFlag=           0 FMFlag=      100000 FMFlg1=           0
         NFxFlg=           0 DoJE=T BraDBF=F KetDBF=T FulRan=T
         wScrn=  0.000000 ICntrl=       500 IOpCl=  0 I1Cent=   200000004 NGrid=           0
         NMat0=    1 NMatS0=      1 NMatT0=    0 NMatD0=    1 NMtDS0=    0 NMtDT0=    0
 Symmetry not used in FoFCou.
 Harris En= -1.17608320540130    
 JPrj=0 DoOrth=F DoCkMO=F.
 Leave Link  401 at Thu Sep 19 14:23:13 2024, MaxMem=   104857600 cpu:               0.0 elap:               0.0
 (Enter /Volumes/gaussian/gdv_j29p/gdv/l502.exe)
 Two-electron integral symmetry not used.
 Closed shell SCF:
 Using DIIS extrapolation, IDIIS=  1040.
 NGot=   104857600 LenX=   104594092 LenY=   104593210
 Requested convergence on RMS density matrix=1.00D-08 within 128 cycles.
 Requested convergence on MAX density matrix=1.00D-06.
 Requested convergence on             energy=1.00D-06.
 No special actions if energy rises.

 Cycle   1  Pass 1  IDiag  1:
 E= -1.12066003609334    
 DIIS: error= 1.92D-02 at cycle   1 NSaved=   1.
 NSaved= 1 IEnMin= 1 EnMin= -1.12066003609334     IErMin= 1 ErrMin= 1.92D-02
 ErrMax= 1.92D-02  0.00D+00 EMaxC= 1.00D-01 BMatC= 7.35D-04 BMatP= 7.35D-04
 Rises=F IDIUse=3 WtCom= 8.08D-01 WtEn= 1.92D-01
 Coeff-Com:  0.100D+01
 Coeff-En:   0.100D+01
 Coeff:      0.100D+01
 Gap=     0.862 Goal=   None    Shift=    0.000
 GapD=    0.862 DampG=2.000 DampE=0.500 DampFc=1.0000 IDamp=-1.
 RMSDP=7.90D-03 MaxDP=1.20D-02              OVMax= 2.54D-02

 Cycle   2  Pass 1  IDiag  1:
 E= -1.12289229584761     Delta-E=       -0.002232259754 Rises=F Damp=F AM=F Ri=F Fa=F
 DIIS: error= 2.79D-03 at cycle   2 NSaved=   2.
 NSaved= 2 IEnMin= 2 EnMin= -1.12289229584761     IErMin= 2 ErrMin= 2.79D-03
 ErrMax= 2.79D-03  0.00D+00 EMaxC= 1.00D-01 BMatC= 1.55D-05 BMatP= 7.35D-04
 Rises=F IDIUse=3 WtCom= 9.85D-01 WtEn= 1.47D-02
 Coeff-Com: -0.170D+00 0.117D+01
 Coeff-En:   0.000D+00 0.100D+01
 Coeff:     -0.168D+00 0.117D+01
 Gap=     0.857 Goal=   None    Shift=    0.000
 RMSDP=1.33D-03 MaxDP=1.97D-03 DE=-2.23D-03 OVMax= 4.30D-03

 Cycle   3  Pass 1  IDiag  1:
 E= -1.12294025878105     Delta-E=       -0.000047962933 Rises=F Damp=F AM=F Ri=F Fa=F
 DIIS: error= 3.02D-06 at cycle   3 NSaved=   3.
 NSaved= 3 IEnMin= 3 EnMin= -1.12294025878105     IErMin= 3 ErrMin= 3.02D-06
 ErrMax= 3.02D-06  0.00D+00 EMaxC= 1.00D-01 BMatC= 1.82D-11 BMatP= 1.55D-05
 Rises=F IDIUse=1 WtCom= 1.00D+00 WtEn= 0.00D+00
 SCFDIS: NSaved=  3 BigCof=    0.00 CofMax=   50.00 Det= 9.49D-21
 Inversion failed.  Reducing to  2 matrices.
 Coeff-Com: -0.108D-02 0.100D+01
 Coeff:     -0.108D-02 0.100D+01
 Gap=     0.857 Goal=   None    Shift=    0.000
 RMSDP=1.44D-06 MaxDP=2.12D-06 DE=-4.80D-05 OVMax= 4.66D-06

 Cycle   4  Pass 1  IDiag  1:
 E= -1.12294025883729     Delta-E=       -0.000000000056 Rises=F Damp=F AM=F Ri=F Fa=F
 DIIS: error= 4.41D-10 at cycle   4 NSaved=   3.
 NSaved= 3 IEnMin= 3 EnMin= -1.12294025883729     IErMin= 3 ErrMin= 4.41D-10
 ErrMax= 4.41D-10  0.00D+00 EMaxC= 1.00D-01 BMatC= 3.89D-19 BMatP= 1.82D-11
 Rises=F IDIUse=1 WtCom= 1.00D+00 WtEn= 0.00D+00
 SCFDIS: NSaved=  3 BigCof=    0.00 CofMax=   50.00 Det= 7.37D-27
 Inversion failed.  Reducing to  2 matrices.
 Coeff-Com:  0.146D-03 0.100D+01
 Coeff:      0.146D-03 0.100D+01
 Gap=     0.857 Goal=   None    Shift=    0.000
 RMSDP=2.11D-10 MaxDP=3.10D-10 DE=-5.62D-11 OVMax= 6.81D-10

 SCF Done:  E(RHF) =  -1.12294025884     A.U. after    4 cycles
            NFock=  4  Conv=0.21D-09     -V/T= 2.0064
 KE=           1.115832 PE=          -3.606645 EE=           0.652768
 Leave Link  502 at Thu Sep 19 14:23:13 2024, MaxMem=   104857600 cpu:               0.0 elap:               0.0
 (Enter /Volumes/gaussian/gdv_j29p/gdv/l601.exe)
 Copying SCF densities to generalized density rwf, IOpCl= 0 IROHF=0.

 **********************************************************************

            Population analysis using the SCF Density.

 **********************************************************************

 Alpha  occ. eigenvalues --       -0.59264
 Alpha virt. eigenvalues --        0.26419       0.92028       1.52562
          Condensed to atoms (all electrons):
               1          2
     1  H    0.595871   0.404129
     2  H    0.404129   0.595871
 Mulliken charges:
               1
     1  H    0.000000
     2  H    0.000000
 Sum of Mulliken charges =   0.00000
 Mulliken charges with hydrogens summed into heavy atoms:
               1
 Electronic spatial extent (au):  <R**2>=              6.0998
 Charge=              0.0000 electrons
 Dipole moment (field-independent basis, Debye):
    X=              0.0000    Y=              0.0000    Z=              0.0000  Tot=              0.0000
 Quadrupole moment (field-independent basis, Debye-Ang):
   XX=             -1.5720   YY=             -2.0011   ZZ=             -2.0011
   XY=              0.0000   XZ=              0.0000   YZ=              0.0000
 Traceless Quadrupole moment (field-independent basis, Debye-Ang):
   XX=              0.2861   YY=             -0.1430   ZZ=             -0.1430
   XY=              0.0000   XZ=              0.0000   YZ=              0.0000
 Octapole moment (field-independent basis, Debye-Ang**2):
  XXX=             -1.7449  YYY=              0.0000  ZZZ=              0.0000  XYY=             -0.7404
  XXY=              0.0000  XXZ=              0.0000  XZZ=             -0.7404  YZZ=              0.0000
  YYZ=              0.0000  XYZ=              0.0000
 Hexadecapole moment (field-independent basis, Debye-Ang**3):
 XXXX=             -3.9883 YYYY=             -1.7594 ZZZZ=             -1.7594 XXXY=              0.0000
 XXXZ=              0.0000 YYYX=              0.0000 YYYZ=              0.0000 ZZZX=              0.0000
 ZZZY=              0.0000 XXYY=             -1.0278 XXZZ=             -1.0278 YYZZ=             -0.5865
 XXYZ=              0.0000 YYXZ=              0.0000 ZZXY=              0.0000
 N-N=           0.715104 E-N=          -3.606645  KE=           1.115832
 No NMR shielding tensors so no spin-rotation constants.
 Leave Link  601 at Thu Sep 19 14:23:13 2024, MaxMem=   104857600 cpu:               0.0 elap:               0.0
 (Enter /Volumes/gaussian/gdv_j29p/gdv/l9999.exe)

 Test job not archived.
 1\1\GINC-CHEM-CARIC-22\SP\RHF\3-21G\H2\MARCO\19-Sep-2024\0\\#p HF/3-21
 g nosymm output=(baf) extralinks=l316 noraff scf=conventional test\\pi
 ppo\\0,1\H,0,0.,0.,0.\H,0,0.74,0.,0.\\Version=Apple M1-GDVRevJ.29+\HF=
 -1.1229403\RMSD=2.108e-10\Dipole=0.,0.,0.\Quadrupole=0.2126845,-0.1063
 423,-0.1063423,0.,0.,0.\PG=D*H [C*(H1.H1)]\\@


 ... SUBJECTS WHICH DISCLOSE THEIR FULL POWER, MEANING AND BEAUTY AS SOON
 AS THEY ARE PRESENTED TO THE MIND HAVE VERY LITTLE OF THOSE QUALITIES
 TO DISCLOSE.
                           -- CHARLES DUTTON (1882)
 RW2BAF: Writing raw file "H2.baf"
 Gaussian matrix elements                                         Version   3 NLab=11 I4Labs=T I2Labs=F
 Write SHELL TO ATOM MAP                   from file      0 offset           0 length                   4 to binary array file.
 Write SHELL TYPES                         from file      0 offset           0 length                   4 to binary array file.
 Write NUMBER OF PRIMITIVES PER SHELL      from file      0 offset           0 length                   4 to binary array file.
 Write PRIMITIVE EXPONENTS                 from file      0 offset           0 length                   6 to binary array file.
 Write CONTRACTION COEFFICIENTS            from file      0 offset           0 length                   6 to binary array file.
 Write P(S=P) CONTRACTION COEFFICIENTS     from file      0 offset           0 length                   6 to binary array file.
 Write COORDINATES OF EACH SHELL           from file      0 offset           0 length                  12 to binary array file.
 Write BONDS PER ATOM                      from file      0 offset           0 length                   2 to binary array file.
 Write BONDED ATOMS                        from file      0 offset           0 length                   2 to binary array file.
 Write BOND TYPES                          from file      0 offset           0 length                   2 to binary array file.
 Write ONIOM CHARGE/MULT                   from file      0 offset           0 length                  32 to binary array file.
 Write ONIOM ATOM LAYERS                   from file      0 offset           0 length                   2 to binary array file.
 Write ONIOM ATOM MODIFIERS                from file      0 offset           0 length                   2 to binary array file.
 Write ONIOM ATOM TYPES                    from file      0 offset           0 length                   2 to binary array file.
 Write ONIOM LINK ATOMS                    from file      0 offset           0 length                   2 to binary array file.
 Write ONIOM LINK CHARGES                  from file      0 offset           0 length                   2 to binary array file.
 Write ONIOM LINK DISTANCES                from file      0 offset           0 length                   8 to binary array file.
 Write SYMINF INTEGERS                     from file      0 offset           0 length                  26 to binary array file.
 Write ROTTR TO INPUT ORIENTATION          from file      0 offset           0 length                  12 to binary array file.
 Write TITLE                               from file      0 offset           0 length                   2 to binary array file.
 Write ROUTE                               from file      0 offset           0 length                  19 to binary array file.
 Write INFO1-9                             from file      0 offset           0 length                   9 to binary array file.
 Write METHOD                              from file      0 offset           0 length                   1 to binary array file.
 Write BASIS NAME                          from file      0 offset           0 length                   2 to binary array file.
 Write POINT GROUP                         from file      0 offset           0 length                   4 to binary array file.
 Write POINT GROUP DIMENSIONS              from file      0 offset           0 length                   8 to binary array file.
 Write POINT GROUP IRREP NAMES             from file      0 offset           0 length                  16 to binary array file.
 Write POINT GROUP CLASS NAMES             from file      0 offset           0 length                  16 to binary array file.
 Write POINT GROUP GENERATORS              from file      0 offset           0 length                   3 to binary array file.
 Write POINT GROUP CLASS OF OPERATORS      from file      0 offset           0 length                   8 to binary array file.
 Write POINT GROUP ROTATIONS               from file      0 offset           0 length                  96 to binary array file.
 Write POINT GROUP CELL TRANS              from file      0 offset           0 length                  24 to binary array file.
 Write POINT GROUP CHAR TABLE              from file      0 offset           0 length                  64 to binary array file.
 Write POINT GROUP ATOM PERMUTATIONS       from file      0 offset           0 length                  16 to binary array file.
 Write ILSW                                from file      0 offset           0 length                 100 to binary array file.
 Write RLSW                                from file      0 offset           0 length                 100 to binary array file.
 Write GAUSSIAN SCALARS                    from file 100501 offset           0 to binary array file.
 Write OPTIMIZATION FLAGS                  from file      0 offset           0 length                   2 to binary array file.
 Write INTEGER ISO                         from file      0 offset           0 length                   2 to binary array file.
 Write INTEGER SPIN                        from file      0 offset           0 length                   2 to binary array file.
 Write REAL ZEFFECTIVE                     from file      0 offset           0 length                   2 to binary array file.
 Write REAL GFACTOR                        from file      0 offset           0 length                   2 to binary array file.
 Write REAL ZNUCLEAR                       from file      0 offset           0 length                   2 to binary array file.
 Write MULLIKEN CHARGES                    from file      0 offset           0 length                   2 to binary array file.
 Write NUCLEAR GRADIENT                    from file      0 offset           0 length                   6 to binary array file.
 Write NON-ADIABATIC COUPLING              from file      0 offset           0 length                   6 to binary array file.
 Write ELECTRIC DIPOLE MOMENT              from file      0 offset           0 length                   3 to binary array file.
 Write QUADRUPOLE MOMENT                   from file      0 offset           0 length                   6 to binary array file.
 Write QEQ COUPLING TENSORS                from file      0 offset           0 length                  12 to binary array file.
 Write HARM CONSTRAINT C AND FC            from file      0 offset           0 length                  12 to binary array file.
 Write FINITE EM FIELD                     from file 100521 offset           0 length                 105 to binary array file.
 Write OVERLAP                             from file 100514 offset           0 length                  10 to binary array file.
 Write CORE HAMILTONIAN ALPHA              from file 100515 offset           0 length                  10 to binary array file.
 Write CORE HAMILTONIAN BETA               from file 100515 offset          10 length                  10 to binary array file.
 Write KINETIC ENERGY                      from file 100516 offset           0 length                  10 to binary array file.
 Write ORTHONORMAL BASIS                   from file 100685 offset           0 length                  16 to binary array file.
 Write DIPOLE INTEGRALS                    from file 100518 offset           0 length                  30 to binary array file.
 Write DIP VEL INTEGRALS                   from file 100572 offset           0 length                  30 to binary array file.
 Write R X DEL INTEGRALS                   from file 100572 offset          30 length                  30 to binary array file.
 Write R X DEL - DEL X R INTEGRALS         from file 100572 offset          60 length                  60 to binary array file.
 Array MAGNETIC FIELD P1 (GIAO)             on  file 100696 does not exist.
 Write ALPHA ORBITAL ENERGIES              from file      0 offset           0 length                   4 to binary array file.
 Write ALPHA MO COEFFICIENTS               from file 100524 offset           0 length                  16 to binary array file.
 Write ALPHA DENSITY MATRIX                from file      0 offset           0 length                  10 to binary array file.
 Write SCF ORBITAL OCCUPATIONS             from file 100861 offset           0 length                   4 to binary array file.
 Write ALPHA FOCK MATRIX                   from file 100536 offset           0 length                  10 to binary array file.
 Write ENERGY-WEIGHTED DENSITY             from file 100571 offset           0 length                  10 to binary array file.
 Write SCF ENERGY-WEIGHTED DENSITY         from file 100571 offset          10 length                  10 to binary array file.
 Write ALPHA SCF DENSITY MATRIX            from file      0 offset           0 length                  10 to binary array file.
 Write REGULAR 2E INTEGRALS                to binary array file, NR=1 ITotal=          55.
 Job cpu time:       0 days  0 hours  0 minutes  0.2 seconds.
 Elapsed time:       0 days  0 hours  0 minutes  0.3 seconds.
 File lengths (MBytes):  RWF=      6 Int=      1 D2E=      0 Chk=      1 Scr=      1
 Normal termination of Gaussian DV at Thu Sep 19 14:23:13 2024.
