 Entering Gaussian System, Link 0=gdv
 Input=H2.gjf
 Output=H2.log
 Initial command:
 /Volumes/gaussian/gdv_j11/gdv/l1.exe "/Users/taylorparsons/scratch/Gau-57809.inp" -scrdir="/Users/taylorparsons/scratch,107374182400"
 Entering Link 1 = /Volumes/gaussian/gdv_j11/gdv/l1.exe PID=     57810.
  
 Copyright (c) 1988-2020, Gaussian, Inc.  All Rights Reserved.
  
 This is the private, development version of
 the Gaussian(R) DV system of programs. It is based on
 the Gaussian(R) 16 system (copyright 2016, Gaussian, Inc.),
 the Gaussian(R) 09 system (copyright 2009, Gaussian, Inc.),
 the Gaussian(R) 03 system (copyright 2003, Gaussian, Inc.),
 the Gaussian(R) 98 system (copyright 1998, Gaussian, Inc.),
 the Gaussian(R) 94 system (copyright 1995, Gaussian, Inc.),
 the Gaussian 92(TM) system (copyright 1992, Gaussian, Inc.),
 the Gaussian 90(TM) system (copyright 1990, Gaussian, Inc.),
 the Gaussian 88(TM) system (copyright 1988, Gaussian, Inc.),
 the Gaussian 86(TM) system (copyright 1986, Carnegie Mellon
 University), and the Gaussian 82(TM) system (copyright 1983,
 Carnegie Mellon University). Gaussian is a federally registered
 trademark of Gaussian, Inc.
  
 This software contains proprietary and confidential information,
 including trade secrets, belonging to Gaussian, Inc.
  
 This software is provided under written license and may be
 used, copied, transmitted, or stored only in accord with that
 written license.
  
 The following legend is applicable only to US Government
 contracts under FAR:
  
                    RESTRICTED RIGHTS LEGEND
  
 Use, reproduction and disclosure by the US Government is
 subject to restrictions as set forth in subparagraphs (a)
 and (c) of the Commercial Computer Software - Restricted
 Rights clause in FAR 52.227-19.
  
 Gaussian, Inc.
 340 Quinnipiac St., Bldg. 40, Wallingford CT 06492
  
  
 ---------------------------------------------------------------
 Warning -- This program may not be used in any manner that
 competes with the business of Gaussian, Inc. or will provide
 assistance to any competitor of Gaussian, Inc.  The licensee
 of this program is prohibited from giving any competitor of
 Gaussian, Inc. access to this program.  By using this program,
 the user acknowledges that Gaussian, Inc. is engaged in the
 business of creating and licensing software in the field of
 computational chemistry and represents and warrants to the
 licensee that it is not a competitor of Gaussian, Inc. and that
 it will not use this program in any manner prohibited above.
 ---------------------------------------------------------------
  

 Cite this work as:
 Gaussian Development Version, Revision J.11,
 M. J. Frisch, G. W. Trucks, H. B. Schlegel, G. E. Scuseria, 
 M. A. Robb, J. R. Cheeseman, G. Scalmani, V. Barone, 
 G. A. Petersson, H. Nakatsuji, X. Li, M. Caricato, A. V. Marenich, 
 J. Bloino, B. G. Janesko, R. Gomperts, B. Mennucci, H. P. Hratchian, 
 J. V. Ortiz, A. F. Izmaylov, J. L. Sonnenberg, D. Williams-Young, 
 F. Ding, F. Lipparini, F. Egidi, J. Goings, B. Peng, A. Petrone, 
 T. Henderson, D. Ranasinghe, V. G. Zakrzewski, J. Gao, N. Rega, 
 G. Zheng, W. Liang, M. Hada, M. Ehara, K. Toyota, R. Fukuda, 
 J. Hasegawa, M. Ishida, T. Nakajima, Y. Honda, O. Kitao, H. Nakai, 
 T. Vreven, K. Throssell, J. A. Montgomery, Jr., J. E. Peralta, 
 F. Ogliaro, M. J. Bearpark, J. J. Heyd, E. N. Brothers, K. N. Kudin, 
 V. N. Staroverov, T. A. Keith, R. Kobayashi, J. Normand, 
 K. Raghavachari, A. P. Rendell, J. C. Burant, S. S. Iyengar, 
 J. Tomasi, M. Cossi, J. M. Millam, M. Klene, C. Adamo, R. Cammi, 
 J. W. Ochterski, R. L. Martin, K. Morokuma, O. Farkas, 
 J. B. Foresman, and D. J. Fox, Gaussian, Inc., Wallingford CT, 2020.
 
 ******************************************
 Gaussian DV:  EM64M-GDVRevJ.11 18-May-2020
                14-Sep-2022 
 ******************************************
 %mem=10gb
 %nproc=3
 Will use up to    3 processors via shared memory.
 %chk=H2.chk
 ----------------------------------------------------------------------
 #p HF/3-21G sp punch=MO iop(3/33=3) nosymm extralinks=l316 noraff scf=
 conventional
 ----------------------------------------------------------------------
 1/38=1,172=1/1;
 2/12=2,15=1,17=6,18=5,40=1/2;
 3/5=5,25=20,28=1,30=1,33=3/1,2,3,20,16;
 4//1;
 5/5=1,29=1/2;
 6/7=2,8=2,9=2,10=2,28=1/1;
 99/5=1,9=1,10=32/99;
 Leave Link    1 at Wed Sep 14 14:50:36 2022, MaxMem=  1342177280 cpu:               0.5 elap:               0.2
 (Enter /Volumes/gaussian/gdv_j11/gdv/l101.exe)
 -----
 test1
 -----
 Symbolic Z-matrix:
 Charge =  0 Multiplicity = 1
 H                     0.        0.        0. 
 H                     0.74      0.        0. 
 
 ITRead=  0  0
 MicOpt= -1 -1
 NAtoms=      2 NQM=        2 NQMF=       0 NMMI=      0 NMMIF=      0
                NMic=       0 NMicF=      0.
                    Isotopes and Nuclear Properties:
 (Nuclear quadrupole moments (NQMom) in fm**2, nuclear magnetic moments (NMagM)
  in nuclear magnetons)

  Atom         1           2
 IAtWgt=           1           1
 AtmWgt=   1.0078250   1.0078250
 NucSpn=           1           1
 AtZEff=  -0.0000000  -0.0000000
 NQMom=    0.0000000   0.0000000
 NMagM=    2.7928460   2.7928460
 AtZNuc=   1.0000000   1.0000000
 Leave Link  101 at Wed Sep 14 14:50:37 2022, MaxMem=  1342177280 cpu:               0.6 elap:               0.2
 (Enter /Volumes/gaussian/gdv_j11/gdv/l202.exe)
                          Input orientation:                          
 ---------------------------------------------------------------------
 Center     Atomic      Atomic             Coordinates (Angstroms)
 Number     Number       Type             X           Y           Z
 ---------------------------------------------------------------------
      1          1           0        0.000000    0.000000    0.000000
      2          1           0        0.740000    0.000000    0.000000
 ---------------------------------------------------------------------
 Symmetry turned off by external request.
 Stoichiometry    H2
 Framework group  D*H[C*(H.H)]
 Deg. of freedom     1
 Full point group                 D*H     NOp   8
 Rotational constants (GHZ):           0.0000000        1831.4649542        1831.4649542
 Leave Link  202 at Wed Sep 14 14:50:37 2022, MaxMem=  1342177280 cpu:               0.0 elap:               0.0
 (Enter /Volumes/gaussian/gdv_j11/gdv/l301.exe)
                         Coordinates in L301:                         
 ---------------------------------------------------------------------
 Center     Atomic      Atomic             Coordinates (Angstroms)
 Number     Number       Type             X           Y           Z
 ---------------------------------------------------------------------
      1          1           0        0.000000    0.000000    0.000000
      2          1           0        0.740000    0.000000    0.000000
 ---------------------------------------------------------------------
 Standard basis: 3-21G (6D, 7F)
 FixB: optimizing general contractions.
 Ernie: Thresh=  0.10000D-02 Tol=  0.10000D-05 Strict=F.
 IA=     1 ShT= 0 ShC= 0 NL=   2 NS=   1.
         I=   1 JX=   1 NP=   2
         I=   2 JX=   2 NP=   1
 IA=     1 L=0 SC=0 ISt=    0 NBk=    0 NP=    0 IndPr=    0.
 IA=     2 ShT= 0 ShC= 0 NL=   2 NS=   1.
         I=   1 JX=   3 NP=   2
         I=   2 JX=   4 NP=   1
 IA=     2 L=0 SC=0 ISt=    0 NBk=    0 NP=    0 IndPr=    0.
     4 AO functions
 Electric field displacement of shell     1 is  0.00D+00
 Electric field displacement of shell     2 is  0.00D+00
 Electric field displacement of shell     3 is  0.00D+00
 Electric field displacement of shell     4 is  0.00D+00
 LdAtmC:  AtmChg=     1.000000     1.000000
 AtDip 
                 1             2             3 
      1   0.000000D+00  0.000000D+00  0.000000D+00
      2   0.000000D+00  0.000000D+00  0.000000D+00
 AtQua 
                 1             2             3             4             5 
      1   0.000000D+00  0.000000D+00  0.000000D+00  0.000000D+00  0.000000D+00
      2   0.000000D+00  0.000000D+00  0.000000D+00  0.000000D+00  0.000000D+00
                 6 
      1   0.000000D+00
      2   0.000000D+00
 AtPol 
                 1 
      1   0.000000D+00
      2   0.000000D+00
 GetPMM: IRwPM=    824 LRwPM=      0 LPMAll=      2
 AtZEff=     -1.0000000     -1.0000000
     4 basis functions,     6 primitive gaussians,     4 cartesian basis functions
     1 alpha electrons        1 beta electrons
       nuclear repulsion energy         0.7151043391 Hartrees.
 IS=     1 IAt=     1 ISR=     1 T=0 IP=      1 IndIP=      1 IndIPD=      0 C=  3.971513D-01  0.000000D+00                             NZ=T
 IS=     1 IAt=     1 ISR=     1 T=0 IP=      2 IndIP=      2 IndIPD=      1 C=  5.579200D-01  0.000000D+00                             NZ=T
 IS=     2 IAt=     1 ISR=     2 T=0 IP=      1 IndIP=      3 IndIPD=      0 C=  1.995672D-01  0.000000D+00                             NZ=T
 IS=     3 IAt=     2 ISR=     1 T=0 IP=      1 IndIP=      4 IndIPD=      0 C=  3.971513D-01  0.000000D+00                             NZ=T
 IS=     3 IAt=     2 ISR=     1 T=0 IP=      2 IndIP=      5 IndIPD=      1 C=  5.579200D-01  0.000000D+00                             NZ=T
 IS=     4 IAt=     2 ISR=     2 T=0 IP=      1 IndIP=      6 IndIPD=      0 C=  1.995672D-01  0.000000D+00                             NZ=T
 IExCor=       0 DFT=F Ex=HF Corr=None N6=None ScaHFX=  1.000000
 ScaDFX=  1.000000  1.000000  1.000000  1.000000  1.000000  0.000000
 ScaDFX=  0.000000  0.000000  0.000000  0.000000  0.000000  0.000000
 IRadAn=      5 IRanWt=     -1 IRanGd=            0 ICorTp=0 IEmpDi=  4
 NAtoms=    2 NActive=    2 NUniq=    2 SFac= 1.00D+00 NAtFMM=   60 NAOKFM=F Big=F
 Integral buffers will be    131072 words long.
 Regular integral format.
 Two-electron integral symmetry is turned off.
 AtDip 
                 1             2             3 
      1   0.000000D+00  0.000000D+00  0.000000D+00
      2   0.000000D+00  0.000000D+00  0.000000D+00
 AtQua 
                 1             2             3             4             5 
      1   0.000000D+00  0.000000D+00  0.000000D+00  0.000000D+00  0.000000D+00
      2   0.000000D+00  0.000000D+00  0.000000D+00  0.000000D+00  0.000000D+00
                 6 
      1   0.000000D+00
      2   0.000000D+00
 AtPol 
                 1 
      1   0.000000D+00
      2   0.000000D+00
 Pair potential:
 Leave Link  301 at Wed Sep 14 14:50:37 2022, MaxMem=  1342177280 cpu:               0.2 elap:               0.1
 (Enter /Volumes/gaussian/gdv_j11/gdv/l302.exe)
 GetPMM: IRwPM=    824 LRwPM=      0 LPMAll=      2
 GetPCM: File not found, return IValue=0.
 AtDip 
                 1             2             3 
      1   0.000000D+00  0.000000D+00  0.000000D+00
      2   0.000000D+00  0.000000D+00  0.000000D+00
 AtQua 
                 1             2             3             4             5 
      1   0.000000D+00  0.000000D+00  0.000000D+00  0.000000D+00  0.000000D+00
      2   0.000000D+00  0.000000D+00  0.000000D+00  0.000000D+00  0.000000D+00
                 6 
      1   0.000000D+00
      2   0.000000D+00
 AtPol 
                 1 
      1   0.000000D+00
      2   0.000000D+00
 NPDir=0 NMtPBC=     1 NCelOv=     1 NCel=       1 NClECP=     1 NCelD=      1
         NCelK=      1 NCelE2=     1 NClLst=     1 CellRange=     0.0.
 One-electron integrals computed using PRISM.
 Entering OneElI...
 OneElI was handed  1342177116 working-precision words.
 Calculate overlap and kinetic energy integrals
    NBasis =   4  MinDer = 0  MaxDer = 0
 Requested accuracy = 0.1000D-12
 ShPair: Thresh= 1.00D-13 NBox=     0 BxSize= 0.00D+00 RnKept= 1.40D+00
         NSMCal=                   10 NSMKep=                  10
 PrmmSu-InSpLW:  IPartL=    0 NPrtUS=    3 NPrtUL=    1 DoSpLW=F IThBeg=    0 IThEnd=    2 NThAct=    3.
 PrSmSu:  IncTry=   512 NBBP=             10 NTPThr=   100 NPartT=    3 Incr=           1 LDynOK=F GPUOK=F.
 PrsmSu:  NPrtUS=   3 ThrOK=T IAlg=1 LenDen=           0 ISkipM=0 DoSpLW=F IThBeg=    0 IThEnd=    2.
 Prism:   IPart=     0 DynPar=F LinDyn=F Incr=           1.
 PRISM was handed   447391463 working-precision words and    10 shell-pairs
 PRISM was handed   447391463 working-precision words and    10 shell-pairs
 PRISM was handed   447391463 working-precision words and    10 shell-pairs
 IPart=  0 NShTot=           4 NBatch=           3 AvBLen=         1.3
 IPart=  1 NShTot=           3 NBatch=           3 AvBLen=         1.0
 PrsmSu-ThDecC:  IPartSL=    0    0 NPrtUSL=    3    1 IThBeg=    0 IThEnd=    2 CPU=   -1 GPU=   -1 NThAct=    3.
 IPart=  2 NShTot=           3 NBatch=           3 AvBLen=         1.0
 PrsmSu-ThDecC:  IPartSL=    1    0 NPrtUSL=    3    1 IThBeg=    0 IThEnd=    2 CPU=   -1 GPU=   -1 NThAct=    2.
 PrsmSu-ThDecC:  IPartSL=    2    0 NPrtUSL=    3    1 IThBeg=    0 IThEnd=    2 CPU=   -1 GPU=   -1 NThAct=    1.
 PrSmSu:  NxtVal=              4.
 *** Overlap *** 
                1             2             3             4 
      1  0.100000D+01
      2  0.645898D+00  0.100000D+01
      3  0.404329D+00  0.480517D+00  0.100000D+01
      4  0.480517D+00  0.836008D+00  0.645898D+00  0.100000D+01
 *** Kinetic Energy *** 
                1             2             3             4 
      1  0.154940D+01
      2  0.293151D+00  0.274787D+00
      3  0.212128D+00  0.174951D+00  0.154940D+01
      4  0.174951D+00  0.202293D+00  0.293151D+00  0.274787D+00
 Entering OneElI...
 OneElI was handed  1342177116 working-precision words.
 Calculate potential energy integrals
    NBasis =   4  MinDer = 0  MaxDer = 0
 Requested accuracy = 0.1000D-12
 ShPair: Thresh= 1.00D-13 NBox=     0 BxSize= 0.00D+00 RnKept= 1.40D+00
         NSMCal=                   10 NSMKep=                  10
 PrmmSu-InSpLW:  IPartL=    0 NPrtUS=    3 NPrtUL=    1 DoSpLW=F IThBeg=    0 IThEnd=    2 NThAct=    3.
 PrSmSu:  IncTry=   512 NBBP=             20 NTPThr=   100 NPartT=    3 Incr=           1 LDynOK=F GPUOK=F.
 PrsmSu:  NPrtUS=   3 ThrOK=T IAlg=1 LenDen=           0 ISkipM=0 DoSpLW=F IThBeg=    0 IThEnd=    2.
 Prism:   IPart=     0 DynPar=F LinDyn=F Incr=           1.
 PRISM was handed   447391447 working-precision words and    10 shell-pairs
 PRISM was handed   447391447 working-precision words and    10 shell-pairs
 PRISM was handed   447391447 working-precision words and    10 shell-pairs
 IPart=  0 NShTot=           8 NBatch=           4 AvBLen=         2.0
 IPart=  1 NShTot=           6 NBatch=           3 AvBLen=         2.0
 IPart=  2 NShTot=           6 NBatch=           3 AvBLen=         2.0
 PrsmSu-ThDecC:  IPartSL=    0    0 NPrtUSL=    3    1 IThBeg=    0 IThEnd=    2 CPU=   -1 GPU=   -1 NThAct=    3.
 PrsmSu-ThDecC:  IPartSL=    2    0 NPrtUSL=    3    1 IThBeg=    0 IThEnd=    2 CPU=   -1 GPU=   -1 NThAct=    2.
 PrsmSu-ThDecC:  IPartSL=    1    0 NPrtUSL=    3    1 IThBeg=    0 IThEnd=    2 CPU=   -1 GPU=   -1 NThAct=    1.
 PrSmSu:  NxtVal=              4.
 ***** Potential Energy ***** 
                1             2             3             4 
      1  0.242953D+01
      2  0.122390D+01  0.123271D+01
      3  0.966402D+00  0.944258D+00  0.242953D+01
      4  0.944258D+00  0.107732D+01  0.122390D+01  0.123271D+01
 ****** Core Hamiltonian ****** 
                1             2             3             4 
      1 -0.880122D+00
      2 -0.930747D+00 -0.957927D+00
      3 -0.754274D+00 -0.769308D+00 -0.880122D+00
      4 -0.769308D+00 -0.875029D+00 -0.930747D+00 -0.957927D+00
 SSO for IR=          1
                 1             2             3             4 
      1   0.100000D+01  0.645898D+00  0.404329D+00  0.480517D+00
      2   0.645898D+00  0.100000D+01  0.480517D+00  0.836008D+00
      3   0.404329D+00  0.480517D+00  0.100000D+01  0.645898D+00
      4   0.480517D+00  0.836008D+00  0.645898D+00  0.100000D+01
 SVDSVc IOpt=   1 NormSV=T IR=1
 SVDSVc V= 2.77D+00 6.52D-01 4.73D-01 1.08D-01
 V for IR=          1
                 1             2             3             4 
      1   0.450502D+00  0.669660D+00  0.545021D+00 -0.227059D+00
      2   0.545021D+00  0.227059D+00 -0.450502D+00  0.669660D+00
      3   0.450502D+00 -0.669660D+00  0.545021D+00  0.227059D+00
      4   0.545021D+00 -0.227059D+00 -0.450502D+00 -0.669660D+00
 Vt*S*V: 
                1             2             3             4 
      1  0.100000D+01
      2  0.000000D+00  0.100000D+01
      3  0.000000D+00  0.000000D+00  0.100000D+01
      4  0.000000D+00  0.000000D+00  0.000000D+00  0.100000D+01
 TstOVc:  Largest diagonal error= 1.33D-15 IB=1 I=    3.
 TstOVc:  Largest same sym error= 6.52D-16 IB=1 I=    3 J=    2.
 Orthogonalized basis functions: 
                 1             2             3             4 
      1   0.270823D+00  0.829498D+00  0.792252D+00 -0.691185D+00
      2   0.327644D+00  0.281255D+00 -0.654857D+00  0.203850D+01
      3   0.270823D+00 -0.829498D+00  0.792252D+00  0.691185D+00
      4   0.327644D+00 -0.281255D+00 -0.654857D+00 -0.203850D+01
 NBasis=     4 RedAO= T EigKep=  1.08D-01  NBF=     4
 NBsUse=     4 1.00D-06 EigRej= -1.00D+00 NBFU=     4
 Leave Link  302 at Wed Sep 14 14:50:37 2022, MaxMem=  1342177280 cpu:               0.2 elap:               0.1
 (Enter /Volumes/gaussian/gdv_j11/gdv/l303.exe)
 GetPMM: IRwPM=    824 LRwPM=      0 LPMAll=      2
 GetPCM: File not found, return IValue=0.
 DipDrv:  MaxL=1.
 MemDpI: Int=      800000 Cav=           0 CFW=           0 Tot=      800000
 DipPsm:  J= 1 NJ= 4 MaxL=1 MMat= 4 MaxMat= 4.
 DipInt: DoE/N= T F RetVal/Mat= F T Init=T NMatP=  4 IDeriv=0 Min/MaxMlt=  0  1
 Entering OneElI...
 OneElI was handed  1342177221 working-precision words.
 Multipole integrals L=0 to 1 MinM= 0 MaxM= 3.
 Requested accuracy = 0.1000D-12
 ShPair: Thresh= 1.00D-13 NBox=     0 BxSize= 0.00D+00 RnKept= 1.40D+00
         NSMCal=                   10 NSMKep=                  10
 PrmmSu-InSpLW:  IPartL=    0 NPrtUS=    1 NPrtUL=    1 DoSpLW=F IThBeg=    0 IThEnd=    0 NThAct=    1.
 PrSmSu:  IncTry=   512 NBBP=             10 NTPThr=   100 NPartT=    1 Incr=           1 LDynOK=F GPUOK=F.
 PrsmSu:  NPrtUS=   1 ThrOK=F IAlg=2 LenDen=           0 ISkipM=0 DoSpLW=F IThBeg=    0 IThEnd=    0.
 Prism:   IPart=     0 DynPar=F LinDyn=F Incr=           1.
 PRISM was handed  1342176019 working-precision words and    10 shell-pairs
 IPart=  0 NShTot=          10 NBatch=           3 AvBLen=         3.3
 PrsmSu-ThDecC:  IPartSL=    0    0 NPrtUSL=    1    1 IThBeg=    0 IThEnd=    0 CPU=   -1 GPU=   -1 NThAct=    1.
 PrSmSu:  NxtVal=              2.
 Multipole matrices IBuc=   518 IX=    1 IJ=           1:
                1             2             3             4 
      1  0.000000D+00
      2  0.000000D+00  0.000000D+00
      3  0.282707D+00  0.554678D+00  0.139840D+01
      4  0.117276D+00  0.584536D+00  0.903222D+00  0.139840D+01
 Multipole matrices IBuc=   518 IX=    2 IJ=           1:
                1             2             3             4 
      1  0.000000D+00
      2  0.000000D+00  0.000000D+00
      3  0.000000D+00  0.000000D+00  0.000000D+00
      4  0.000000D+00  0.000000D+00  0.000000D+00  0.000000D+00
 Multipole matrices IBuc=   518 IX=    3 IJ=           1:
                1             2             3             4 
      1  0.000000D+00
      2  0.000000D+00  0.000000D+00
      3  0.000000D+00  0.000000D+00  0.000000D+00
      4  0.000000D+00  0.000000D+00  0.000000D+00  0.000000D+00
 ReDoC1: IPurDI=1 IPurFI=1 IPurDO=1 IPurFO=0.
 Fermi contact integrals: 
                 1             2 
      1   0.955071D+00  0.111262D+00
      2   0.199567D+00  0.139479D+00
      3   0.111262D+00  0.955071D+00
      4   0.139479D+00  0.199567D+00
 Leave Link  303 at Wed Sep 14 14:50:37 2022, MaxMem=  1342177280 cpu:               0.1 elap:               0.1
 (Enter /Volumes/gaussian/gdv_j11/gdv/l320.exe)
 GetPMM: IRwPM=    824 LRwPM=      0 LPMAll=      2
 Enter DskPsm, NBasis=   4 NBas6D=   4 NShell=   4 IDoSP=4 IDer=0 ISMode=0.
 Out2e will use a cutoff of  1.00D-10
 FoFCou: FMM=F IPFlag=           0 FMFlag=           0 FMFlg1=           0
         NFxFlg=           0 DoJE=F BraDBF=F KetDBF=F FulRan=T
         wScrn=  0.000000 ICntrl=       600 IOpCl=  9 I1Cent=           0 NGrid=           0
         NMat0=    0 NMatS0=      0 NMatT0=    0 NMatD0=    0 NMtDS0=    0 NMtDT0=    0
 Symmetry not used in FoFCou.
 FoFCou:  KetSym=F NOpSet=  1 NOpAb=1 NOp=  1.
 FoFCou:  CnvScl= 1.00D+00 Thresh= 1.00D-12 IAcrcy=      10.
 IniFok:  ToCart=T IDoP0=0 DoConv=F DoRafP=T DoAdj=T
 ShPair: Thresh= 1.00D-12 NBox=     0 BxSize= 0.00D+00 RnKept= 1.40D+00
         NSMCal=                   10 NSMKep=                  10
 PrismS was handed  1341914181 working-precision words and    10 shell-pairs
 FoFCou: LinMIO=F DoNuc=F BraDBF=F KetDBF=F HaveP=F PDBF=F HaveZ=F HaveW=F
         NIJTC =       1 NIJTAt=       0 NIJTCD=       0 NIJTT =       1
         IJTBeg=       1 IJTEnd=       1 KLTBeg=       1 KLTEnd=       1
         IPTBeg=       1 IPTEnd=       1 IPTBCv=       1 IPTECv=       1
         IZTBeg=       1 IZTEnd=       1 IZTBCv=       1 IZTECv=       1
         IWTBeg=       2 IWTEnd=       1 IWTBCv=       2 IWTECv=       1
         INTBeg=       1 INTEnd=       0 IFTBCv=       1 IFTECv=       1
 NCel replicated for PrismC:     1
 CoulSu-InSpLW:  IPartL=    0 NPrtUS=    3 NPrtUL=    1 DoSpLW=F IThBeg=    0 IThEnd=    2 NThAct=    3.
 CoulSu:  IncTry=  1024 NBBP=             55 NTPThr=   100 NPartT=    3 Incr=           1 LDynOK=F GPUOK=F.
 CoulSu:  NPrtUS=   3 ThrOK=T IAlg=2 LenDen=           0 LWGrdD=           0 DoCopy=F ISkipM=0
          DoSpLW=F IThBeg=    0 IThEnd=    2.
 CoulSu:  IPart=    0 IPartR=    0 CPU=   -1 GPU=   -1.
 CoulSu:  IPart=    1 IPartR=    1 CPU=   -1 GPU=   -1.
 Enter PrismC:  IPart=  0 JobTyp=20 DoJE=F Cont=F.
 CoulSu:  IPart=    2 IPartR=    2 CPU=   -1 GPU=   -1.
 Enter PrismC:  IPart=  1 JobTyp=20 DoJE=F Cont=F.
 Enter PrismC:  IPart=  2 JobTyp=20 DoJE=F Cont=F.
 PrismC:  IPart=     0 DynPar=F LinDyn=F Incr=           1 UseFst=F UseS4=T ISplat=1.
 PrismC:  IPart=     1 DynPar=F LinDyn=F Incr=           1 UseFst=F UseS4=T ISplat=1.
 PrismC was handed   447304220 working-precision words and    10 shell-pairs
 PrismC:  IPart=     2 DynPar=F LinDyn=F Incr=           1 UseFst=F UseS4=T ISplat=1.
 PrismC was handed   447304220 working-precision words and    10 shell-pairs
 PrismC was handed   447304220 working-precision words and    10 shell-pairs
 IPart=  0 NShTot=          21 NShNF=          21 NShFF=           0 MinMC=     930
           NShCPU=          21 NBCPU=           6 AvBCPU=         3.5
           NShGPU=           0 NBGPU=           0 AvBGPU=         0.0
 CoulSu-ThDecC:  IPartSL=    0    0 NPrtUSL=    3    1 IThBeg=    0 IThEnd=    2 CPU=   -1 GPU=   -1 NThAct=    3.
 IPart=  1 NShTot=          18 NShNF=          18 NShFF=           0 MinMC=     930
           NShCPU=          18 NBCPU=           6 AvBCPU=         3.0
           NShGPU=           0 NBGPU=           0 AvBGPU=         0.0
 IPart=  2 NShTot=          16 NShNF=          16 NShFF=           0 MinMC=     930
           NShCPU=          16 NBCPU=           6 AvBCPU=         2.7
           NShGPU=           0 NBGPU=           0 AvBGPU=         0.0
 CoulSu-ThDecC:  IPartSL=    1    0 NPrtUSL=    3    1 IThBeg=    0 IThEnd=    2 CPU=   -1 GPU=   -1 NThAct=    2.
 CoulSu-ThDecC:  IPartSL=    2    0 NPrtUSL=    3    1 IThBeg=    0 IThEnd=    2 CPU=   -1 GPU=   -1 NThAct=    1.
 CoulSu:  NxtVal=              4 LenVP=      447304221 MinMC=     930.
 IniFok:  ToCart=T IDoP0=0 DoConv=T DoRafP=F DoAdj=T
           55 integrals produced for a total of           55.
  END OF INTEGRAL PRINTING.

 warning: entry into irel
 Leave Link  320 at Wed Sep 14 14:50:37 2022, MaxMem=  1342177280 cpu:               0.1 elap:               0.1
 (Enter /Volumes/gaussian/gdv_j11/gdv/l316.exe)



 *** Dumping Two-Electron integrals ***



 ISMode= 0 Mode= 1 IBase=         1 IBasD=         1    131073
 DBase=         0 DBasD=         0         0 IReset=         2    131070
 IntCnt=        55 ITotal=        55 NWIIB=    131072 ISym2E=0
 I=  4 J=  1 K=  3 L=  2 Int=  0.164481975514D+00
 I=  4 J=  3 K=  2 L=  1 Int=  0.253298418330D+00
 I=  4 J=  2 K=  3 L=  1 Int=  0.209690733807D+00
 I=  3 J=  3 K=  3 L=  3 Int=  0.114014486515D+01
 I=  3 J=  3 K=  3 L=  1 Int=  0.382945859912D+00
 I=  3 J=  1 K=  3 L=  1 Int=  0.171904351281D+00
 I=  4 J=  3 K=  3 L=  3 Int=  0.611401885448D+00
 I=  3 J=  3 K=  2 L=  1 Int=  0.414017844654D+00
 I=  4 J=  1 K=  3 L=  1 Int=  0.170286375630D+00
 I=  3 J=  2 K=  1 L=  1 Int=  0.341332741107D+00
 I=  3 J=  3 K=  3 L=  2 Int=  0.448160878093D+00
 I=  4 J=  3 K=  3 L=  1 Int=  0.216826287990D+00
 I=  3 J=  1 K=  2 L=  1 Int=  0.216826287990D+00
 I=  4 J=  1 K=  1 L=  1 Int=  0.448160878093D+00
 I=  4 J=  4 K=  3 L=  3 Int=  0.626369765482D+00
 I=  4 J=  4 K=  3 L=  1 Int=  0.239083902447D+00
 I=  4 J=  4 K=  1 L=  1 Int=  0.520211873817D+00
 I=  4 J=  2 K=  3 L=  3 Int=  0.498444229231D+00
 I=  4 J=  2 K=  1 L=  1 Int=  0.498444229231D+00
 I=  4 J=  3 K=  3 L=  2 Int=  0.253852261497D+00
 I=  3 J=  2 K=  2 L=  1 Int=  0.205234419781D+00
 I=  4 J=  1 K=  4 L=  1 Int=  0.190436864662D+00
 I=  4 J=  3 K=  4 L=  1 Int=  0.205234419781D+00
 I=  3 J=  2 K=  3 L=  2 Int=  0.190436864662D+00
 I=  4 J=  1 K=  2 L=  1 Int=  0.253852261497D+00
 I=  4 J=  4 K=  4 L=  3 Int=  0.380328568600D+00
 I=  4 J=  4 K=  3 L=  2 Int=  0.281309352425D+00
 I=  4 J=  4 K=  4 L=  1 Int=  0.251835426548D+00
 I=  4 J=  4 K=  2 L=  1 Int=  0.322267116289D+00
 I=  4 J=  3 K=  4 L=  2 Int=  0.304362316185D+00
 I=  4 J=  2 K=  3 L=  2 Int=  0.231958665151D+00
 I=  4 J=  2 K=  4 L=  1 Int=  0.231958665151D+00
 I=  4 J=  2 K=  2 L=  1 Int=  0.304362316185D+00
 I=  4 J=  4 K=  4 L=  4 Int=  0.482956275369D+00
 I=  4 J=  4 K=  4 L=  2 Int=  0.392019184518D+00
 I=  4 J=  2 K=  4 L=  2 Int=  0.337542767814D+00
 I=  3 J=  3 K=  1 L=  1 Int=  0.675455583254D+00
 I=  3 J=  1 K=  1 L=  1 Int=  0.382945859912D+00
 I=  1 J=  1 K=  1 L=  1 Int=  0.114014486515D+01
 I=  4 J=  1 K=  3 L=  3 Int=  0.341332741107D+00
 I=  3 J=  2 K=  3 L=  1 Int=  0.170286375630D+00
 I=  4 J=  3 K=  1 L=  1 Int=  0.414017844654D+00
 I=  2 J=  1 K=  1 L=  1 Int=  0.611401885448D+00
 I=  3 J=  3 K=  2 L=  2 Int=  0.520211873817D+00
 I=  3 J=  1 K=  2 L=  2 Int=  0.239083902447D+00
 I=  2 J=  2 K=  1 L=  1 Int=  0.626369765482D+00
 I=  4 J=  3 K=  4 L=  3 Int=  0.345151518259D+00
 I=  2 J=  1 K=  2 L=  1 Int=  0.345151518259D+00
 I=  4 J=  3 K=  2 L=  2 Int=  0.322267116289D+00
 I=  3 J=  2 K=  2 L=  2 Int=  0.251835426548D+00
 I=  4 J=  1 K=  2 L=  2 Int=  0.281309352425D+00
 I=  2 J=  2 K=  2 L=  1 Int=  0.380328568600D+00
 I=  4 J=  4 K=  2 L=  2 Int=  0.430989820968D+00
 I=  4 J=  2 K=  2 L=  2 Int=  0.392019184518D+00
 I=  2 J=  2 K=  2 L=  2 Int=  0.482956275369D+00
 Leave Link  316 at Wed Sep 14 14:50:38 2022, MaxMem=  1342177280 cpu:               0.1 elap:               0.1
 (Enter /Volumes/gaussian/gdv_j11/gdv/l401.exe)
 ExpMin= 1.83D-01 ExpMax= 5.45D+00 ExpMxC= 5.45D+00 IAcc=3 IRadAn=         5 AccDes= 0.00D+00
 Harris functional with IExCor= 2005 and IRadAn=       5 diagonalized for initial guess.
 HarFok:  IExCor=    2005 AccDes= 0.00D+00 IRadAn=         5 IDoV= 1 UseB2=F ITyADJ=14 ICtDFT=  3500011
 FoFCou: FMM=F IPFlag=           0 FMFlag=      100000 FMFlg1=           0
         NFxFlg=           0 DoJE=T BraDBF=F KetDBF=T FulRan=T
         wScrn=  0.000000 ICntrl=       500 IOpCl=  0 I1Cent=   200000004 NGrid=           0
         NMat0=    1 NMatS0=      1 NMatT0=    0 NMatD0=    1 NMtDS0=    0 NMtDT0=    0
 Symmetry not used in FoFCou.
 Harris En= -1.17608320540428    
 JPrj=0 DoOrth=F DoCkMO=F.
 Leave Link  401 at Wed Sep 14 14:50:38 2022, MaxMem=  1342177280 cpu:               0.4 elap:               0.2
 (Enter /Volumes/gaussian/gdv_j11/gdv/l502.exe)
 Two-electron integral symmetry not used.
 Closed shell SCF:
 Using DIIS extrapolation, IDIIS=  1040.
 NGot=  1342177280 LenX=  1341913776 LenY=  1341912894
 Requested convergence on RMS density matrix=1.00D-08 within 128 cycles.
 Requested convergence on MAX density matrix=1.00D-06.
 Requested convergence on             energy=1.00D-06.
 No special actions if energy rises.

 Cycle   1  Pass 1  IDiag  1:
 E= -1.12066003609334    
 DIIS: error= 1.92D-02 at cycle   1 NSaved=   1.
 NSaved= 1 IEnMin= 1 EnMin= -1.12066003609334     IErMin= 1 ErrMin= 1.92D-02
 ErrMax= 1.92D-02  0.00D+00 EMaxC= 1.00D-01 BMatC= 1.47D-03 BMatP= 1.47D-03
 IDIUse=3 WtCom= 8.08D-01 WtEn= 1.92D-01
 Coeff-Com:  0.100D+01
 Coeff-En:   0.100D+01
 Coeff:      0.100D+01
 Gap=     0.862 Goal=   None    Shift=    0.000
 GapD=    0.862 DampG=2.000 DampE=0.500 DampFc=1.0000 IDamp=-1.
 RMSDP=7.90D-03 MaxDP=1.20D-02              OVMax= 2.54D-02

 Cycle   2  Pass 1  IDiag  1:
 E= -1.12289229584761     Delta-E=       -0.002232259754 Rises=F Damp=F
 DIIS: error= 2.79D-03 at cycle   2 NSaved=   2.
 NSaved= 2 IEnMin= 2 EnMin= -1.12289229584761     IErMin= 2 ErrMin= 2.79D-03
 ErrMax= 2.79D-03  0.00D+00 EMaxC= 1.00D-01 BMatC= 3.10D-05 BMatP= 1.47D-03
 IDIUse=3 WtCom= 9.72D-01 WtEn= 2.79D-02
 Coeff-Com: -0.170D+00 0.117D+01
 Coeff-En:   0.000D+00 0.100D+01
 Coeff:     -0.165D+00 0.117D+01
 Gap=     0.857 Goal=   None    Shift=    0.000
 RMSDP=1.33D-03 MaxDP=1.96D-03 DE=-2.23D-03 OVMax= 4.29D-03

 Cycle   3  Pass 1  IDiag  1:
 E= -1.12294025840762     Delta-E=       -0.000047962560 Rises=F Damp=F
 DIIS: error= 8.34D-06 at cycle   3 NSaved=   3.
 NSaved= 3 IEnMin= 3 EnMin= -1.12294025840762     IErMin= 3 ErrMin= 8.34D-06
 ErrMax= 8.34D-06  0.00D+00 EMaxC= 1.00D-01 BMatC= 2.78D-10 BMatP= 3.10D-05
 IDIUse=1 WtCom= 1.00D+00 WtEn= 0.00D+00
 Large coefficients: NSaved=  3 BigCof=    0.00 CofMax=   10.00 Det= 6.78D-21
 Inversion failed.  Reducing to  2 matrices.
 Coeff-Com: -0.300D-02 0.100D+01
 Coeff:     -0.300D-02 0.100D+01
 Gap=     0.857 Goal=   None    Shift=    0.000
 RMSDP=3.99D-06 MaxDP=5.87D-06 DE=-4.80D-05 OVMax= 1.29D-05

 Cycle   4  Pass 1  IDiag  1:
 E= -1.12294025883729     Delta-E=       -0.000000000430 Rises=F Damp=F
 DIIS: error= 1.22D-09 at cycle   4 NSaved=   3.
 NSaved= 3 IEnMin= 3 EnMin= -1.12294025883729     IErMin= 3 ErrMin= 1.22D-09
 ErrMax= 1.22D-09  0.00D+00 EMaxC= 1.00D-01 BMatC= 5.94D-18 BMatP= 2.78D-10
 IDIUse=1 WtCom= 1.00D+00 WtEn= 0.00D+00
 Large coefficients: NSaved=  3 BigCof=    0.00 CofMax=   10.00 Det=-5.17D-26
 Inversion failed.  Reducing to  2 matrices.
 Coeff-Com:  0.146D-03 0.100D+01
 Coeff:      0.146D-03 0.100D+01
 Gap=     0.857 Goal=   None    Shift=    0.000
 RMSDP=5.83D-10 MaxDP=8.57D-10 DE=-4.30D-10 OVMax= 1.88D-09

 SCF Done:  E(RHF) =  -1.12294025884     A.U. after    4 cycles
            NFock=  4  Conv=0.58D-09     -V/T= 2.0064
 KE= 1.115832424068D+00 PE=-3.606645012588D+00 EE= 6.527679906014D-01
 Leave Link  502 at Wed Sep 14 14:50:38 2022, MaxMem=  1342177280 cpu:               0.2 elap:               0.1
 (Enter /Volumes/gaussian/gdv_j11/gdv/l601.exe)
 Copying SCF densities to generalized density rwf, IOpCl= 0 IROHF=0.

 **********************************************************************

            Population analysis using the SCF Density.

 **********************************************************************

 Alpha  occ. eigenvalues --   -0.59264
 Alpha virt. eigenvalues --    0.26419   0.92028   1.52562
          Condensed to atoms (all electrons):
               1          2
     1  H    0.595871   0.404129
     2  H    0.404129   0.595871
 Mulliken charges:
               1
     1  H    0.000000
     2  H    0.000000
 Sum of Mulliken charges =   0.00000
 Mulliken charges with hydrogens summed into heavy atoms:
               1
 Electronic spatial extent (au):  <R**2>=              6.0998
 Charge=              0.0000 electrons
 Dipole moment (field-independent basis, Debye):
    X=              0.0000    Y=              0.0000    Z=              0.0000  Tot=              0.0000
 Quadrupole moment (field-independent basis, Debye-Ang):
   XX=             -1.5720   YY=             -2.0011   ZZ=             -2.0011
   XY=              0.0000   XZ=              0.0000   YZ=              0.0000
 Traceless Quadrupole moment (field-independent basis, Debye-Ang):
   XX=              0.2861   YY=             -0.1430   ZZ=             -0.1430
   XY=              0.0000   XZ=              0.0000   YZ=              0.0000
 Octapole moment (field-independent basis, Debye-Ang**2):
  XXX=             -1.7449  YYY=              0.0000  ZZZ=              0.0000  XYY=             -0.7404
  XXY=              0.0000  XXZ=              0.0000  XZZ=             -0.7404  YZZ=              0.0000
  YYZ=              0.0000  XYZ=              0.0000
 Hexadecapole moment (field-independent basis, Debye-Ang**3):
 XXXX=             -3.9883 YYYY=             -1.7594 ZZZZ=             -1.7594 XXXY=              0.0000
 XXXZ=              0.0000 YYYX=              0.0000 YYYZ=              0.0000 ZZZX=              0.0000
 ZZZY=              0.0000 XXYY=             -1.0278 XXZZ=             -1.0278 YYZZ=             -0.5865
 XXYZ=              0.0000 YYXZ=              0.0000 ZZXY=              0.0000
 N-N= 7.151043390811D-01 E-N=-3.606645013843D+00  KE= 1.115832424068D+00
 No NMR shielding tensors so no spin-rotation constants.
 Leave Link  601 at Wed Sep 14 14:50:38 2022, MaxMem=  1342177280 cpu:               0.2 elap:               0.1
 (Enter /Volumes/gaussian/gdv_j11/gdv/l9999.exe)

 Test job not archived.
 1\1\GINC-LEXLUTHOR\SP\RHF\3-21G\H2\TAYLORPARSONS\14-Sep-2022\0\\#p HF/
 3-21G sp punch=MO iop(3/33=3) nosymm extralinks=l316 noraff scf=conven
 tional\\test1\\0,1\H,0,0.,0.,0.\H,0,0.74,0.,0.\\Version=EM64M-GDVRevJ.
 11\HF=-1.1229403\RMSD=5.828e-10\Dipole=0.,0.,0.\Quadrupole=0.2126845,-
 0.1063423,-0.1063423,0.,0.,0.\PG=D*H [C*(H1.H1)]\\@


 There was a great rattling of the words for the fewness of ideas.
                   -- Charles Baxter in Gryphon
 Job cpu time:       0 days  0 hours  0 minutes  2.9 seconds.
 Elapsed time:       0 days  0 hours  0 minutes  1.2 seconds.
 File lengths (MBytes):  RWF=      6 Int=      1 D2E=      0 Chk=      1 Scr=      1
 Normal termination of Gaussian DV at Wed Sep 14 14:50:38 2022.
