 Entering Gaussian System, Link 0=gdv
 Input=Li2_ccsd.gjf
 Output=Li2_ccsd.log
 Initial command:
 /panfs/pfs.local/work/caricato/m330c584/PANFS-WORK-MCARICATO/gdv_j26/gdv/l1.exe "/tmp/t566p276_57132890/Gau-12208.inp" -scrdir="/tmp/t566p276_57132890/" -exedir="/kuhpc/work/caricato/t566p276/gauopen_stuff/exe-dir:/panfs/pfs.local/work/caricato/m330c584/PANFS-WORK-MCARICATO/gdv_j26/gdv/bsd:/panfs/pfs.local/work/caricato/m330c584/PANFS-WORK-MCARICATO/gdv_j26/gdv/local:/panfs/pfs.local/work/caricato/m330c584/PANFS-WORK-MCARICATO/gdv_j26/gdv/extras:/panfs/pfs.local/work/caricato/m330c584/PANFS-WORK-MCARICATO/gdv_j26/gdv"
 Entering Link 1 = /panfs/pfs.local/work/caricato/m330c584/PANFS-WORK-MCARICATO/gdv_j26/gdv/l1.exe PID=     12209.
  
 Copyright (c) 1988-2024, Gaussian, Inc.  All Rights Reserved.
  
 This is the private, development version of
 the Gaussian(R) DV system of programs. It is based on
 the Gaussian(R) 16 system (copyright 2016, Gaussian, Inc.),
 the Gaussian(R) 09 system (copyright 2009, Gaussian, Inc.),
 the Gaussian(R) 03 system (copyright 2003, Gaussian, Inc.),
 the Gaussian(R) 98 system (copyright 1998, Gaussian, Inc.),
 the Gaussian(R) 94 system (copyright 1995, Gaussian, Inc.),
 the Gaussian 92(TM) system (copyright 1992, Gaussian, Inc.),
 the Gaussian 90(TM) system (copyright 1990, Gaussian, Inc.),
 the Gaussian 88(TM) system (copyright 1988, Gaussian, Inc.),
 the Gaussian 86(TM) system (copyright 1986, Carnegie Mellon
 University), and the Gaussian 82(TM) system (copyright 1983,
 Carnegie Mellon University). Gaussian is a federally registered
 trademark of Gaussian, Inc.
  
 This software contains proprietary and confidential information,
 including trade secrets, belonging to Gaussian, Inc.
  
 This software is provided under written license and may be
 used, copied, transmitted, or stored only in accord with that
 written license.
  
 The following legend is applicable only to US Government
 contracts under FAR:
  
                    RESTRICTED RIGHTS LEGEND
  
 Use, reproduction and disclosure by the US Government is
 subject to restrictions as set forth in subparagraphs (a)
 and (c) of the Commercial Computer Software - Restricted
 Rights clause in FAR 52.227-19.
  
 Gaussian, Inc.
 340 Quinnipiac St., Bldg. 40, Wallingford CT 06492
  
  
 ---------------------------------------------------------------
 Warning -- This program may not be used in any manner that
 competes with the business of Gaussian, Inc. or will provide
 assistance to any competitor of Gaussian, Inc.  The licensee
 of this program is prohibited from giving any competitor of
 Gaussian, Inc. access to this program.  By using this program,
 the user acknowledges that Gaussian, Inc. is engaged in the
 business of creating and licensing software in the field of
 computational chemistry and represents and warrants to the
 licensee that it is not a competitor of Gaussian, Inc. and that
 it will not use this program in any manner prohibited above.
 ---------------------------------------------------------------
  

 Cite this work as:
 Gaussian Development Version, Revision J.26+,
 M. J. Frisch, G. W. Trucks, G. Scalmani, J. R. Cheeseman, X. Li, 
 J. Bloino, B. G. Janesko, A. V. Marenich, J. Zheng, F. Lipparini, 
 A. Jenkins, A. Liu, H. Liu, H. B. Schlegel, G. E. Scuseria, 
 M. A. Robb, V. Barone, G. A. Petersson, H. Nakatsuji, B. Mennucci, 
 C. Adamo, N. Rega, M. Caricato, H. P. Hratchian, J. V. Ortiz, 
 A. F. Izmaylov, H. Hu, C. Liao, J. L. Sonnenberg, D. Williams-Young, 
 F. Ding, R. Gomperts, F. Egidi, J. Goings, B. Peng, A. Petrone, 
 T. Henderson, D. Ranasinghe, V. G. Zakrzewski, J. Gao, G. Zheng, 
 W. Liang, M. Hada, M. Ehara, K. Toyota, R. Fukuda, J. Hasegawa, 
 M. Ishida, T. Nakajima, Y. Honda, O. Kitao, H. Nakai, T. Vreven, 
 K. Throssell, J. A. Montgomery, Jr., J. E. Peralta, F. Ogliaro, 
 M. J. Bearpark, J. J. Heyd, E. N. Brothers, K. N. Kudin, 
 V. N. Staroverov, T. A. Keith, R. Kobayashi, J. Normand, 
 K. Raghavachari, A. P. Rendell, J. C. Burant, S. S. Iyengar, 
 M. Cossi, J. M. Millam, M. Klene, R. Cammi, R. L. Martin, O. Farkas, 
 J. B. Foresman, and D. J. Fox, Gaussian, Inc., Wallingford CT, 2023.
 
 *******************************************
 Gaussian DV:  ES64L-GDVRevJ.26+  5-Jan-2024
                  7-Mar-2024 
 *******************************************
 %mem=10gb
 %nproc=10
 Will use up to   10 processors via shared memory.
 %chk=Li2_ccsd.chk
 ------------------------
 #p ccsd/STO-3G sp nosymm
 ------------------------
 1/37=-1,38=1,172=1/1;
 2/12=2,15=1/2;
 3/6=3,11=9,25=1,30=1/1,2,3;
 4//1;
 5/5=2,38=5/2;
 8/6=4,9=120000,10=1/1,4;
 9/5=7/13;
 6/7=2,8=2,9=2,10=2/1;
 99/5=1,9=1/99;
 Leave Link    1 at Thu Mar  7 09:35:58 2024, MaxMem=  1342177280 cpu:               0.0 elap:               0.0
 (Enter /panfs/pfs.local/work/caricato/m330c584/PANFS-WORK-MCARICATO/gdv_j26/gdv/l101.exe)
 -----
 test1
 -----
 Symbolic Z-matrix:
 Charge =     0 Multiplicity =     1
 Li                    0.        0.        0. 
 Li                    1.1       0.        0. 
 
 ITRead=  0  0
 MicOpt= -1 -1
 NAtoms=      2 NQM=        2 NQMF=       0 NMMI=      0 NMMIF=      0
                NMic=       0 NMicF=      0.
                    Isotopes and Nuclear Properties:
 (Nuclear quadrupole moments (NQMom) in fm**2, nuclear magnetic moments (NMagM)
  in nuclear magnetons)

  Atom         1           2
 IAtWgt=           7           7
 AtmWgt=   7.0160045   7.0160045
 NucSpn=           3           3
 AtZEff=    0.000000    0.000000
 NQMom=   -4.0100000  -4.0100000
 NMagM=    3.2564240   3.2564240
 AtZNuc=   3.0000000   3.0000000
 Leave Link  101 at Thu Mar  7 09:35:58 2024, MaxMem=  1342177280 cpu:               0.1 elap:               0.1
 (Enter /panfs/pfs.local/work/caricato/m330c584/PANFS-WORK-MCARICATO/gdv_j26/gdv/l202.exe)
                          Input orientation:                          
 ---------------------------------------------------------------------
 Center     Atomic      Atomic             Coordinates (Angstroms)
 Number     Number       Type             X           Y           Z
 ---------------------------------------------------------------------
      1          3           0        0.000000    0.000000    0.000000
      2          3           0        1.100000    0.000000    0.000000
 ---------------------------------------------------------------------
 Symmetry turned off by external request.
 Stoichiometry    Li2
 Framework group  D*H[C*(Li.Li)]
 Deg. of freedom     1
 Full point group                 D*H     NOp   8
 Rotational constants (GHZ):           0.0000000         119.0616690         119.0616690
 Leave Link  202 at Thu Mar  7 09:35:58 2024, MaxMem=  1342177280 cpu:               0.0 elap:               0.0
 (Enter /panfs/pfs.local/work/caricato/m330c584/PANFS-WORK-MCARICATO/gdv_j26/gdv/l301.exe)
 Standard basis: STO-3G (5D, 7F)
 Ernie: Thresh=  0.10000D-02 Tol=  0.10000D-05 Strict=F.
    10 basis functions,    30 primitive gaussians,    10 cartesian basis functions
     3 alpha electrons        3 beta electrons
       nuclear repulsion energy         4.3296317257 Hartrees.
 IExCor=         0 DFT=F Ex=HF Corr=None N6=None ScaHFX=  1.000000
 ScaDFX=  1.000000  1.000000  1.000000  1.000000  1.000000  0.000000
 ScaDFX=  0.000000  0.000000  0.000000  0.000000  0.000000  0.000000
 IRadAn=      5 IRanWt=     -1 IRanGd=            0 ICorTp=0 IEmpDi=  4
 NAtoms=    2 NActive=    2 NUniq=    2 SFac= 1.00D+00 NAtFMM=   60 NAOKFM=F Big=F
 Integral buffers will be    131072 words long.
 Raffenetti 1 integral format.
 Two-electron integral symmetry is turned off.
 Leave Link  301 at Thu Mar  7 09:35:58 2024, MaxMem=  1342177280 cpu:               0.0 elap:               0.0
 (Enter /panfs/pfs.local/work/caricato/m330c584/PANFS-WORK-MCARICATO/gdv_j26/gdv/l302.exe)
 NPDir=0 NMtPBC=     1 NCelOv=     1 NCel=       1 NClECP=     1 NCelD=      1
         NCelK=      1 NCelE2=     1 NClLst=     1 CellRange=     0.0.
 One-electron integrals computed using PRISM.
 NBasis=    10 RedAO= T EigKep=  4.25D-03  NBF=    10
 NBsUse=    10 1.00D-06 EigRej= -1.00D+00 NBFU=    10
 Leave Link  302 at Thu Mar  7 09:35:58 2024, MaxMem=  1342177280 cpu:               0.3 elap:               0.1
 (Enter /panfs/pfs.local/work/caricato/m330c584/PANFS-WORK-MCARICATO/gdv_j26/gdv/l303.exe)
 DipDrv:  MaxL=1.
 Leave Link  303 at Thu Mar  7 09:35:58 2024, MaxMem=  1342177280 cpu:               0.0 elap:               0.0
 (Enter /panfs/pfs.local/work/caricato/m330c584/PANFS-WORK-MCARICATO/gdv_j26/gdv/l401.exe)
 ExpMin= 4.81D-02 ExpMax= 1.61D+01 ExpMxC= 1.61D+01 IAcc=3 IRadAn=         5 AccDes= 0.00D+00
 Harris functional with IExCor= 2005 and IRadAn=       5 diagonalized for initial guess.
 HarFok:  IExCor=    2005 AccDes= 0.00D+00 IRadAn=         5 IDoV= 1 UseB2=F ITyADJ=14 ICtDFT=  3500011
 FoFCou: FMM=F IPFlag=           0 FMFlag=      100000 FMFlg1=           0
         NFxFlg=           0 DoJE=T BraDBF=F KetDBF=T FulRan=T
         wScrn=  0.000000 ICntrl=       500 IOpCl=  0 I1Cent=   200000004 NGrid=           0
         NMat0=    1 NMatS0=      1 NMatT0=    0 NMatD0=    1 NMtDS0=    0 NMtDT0=    0
 Symmetry not used in FoFCou.
 Harris En= -14.3894343186310    
 JPrj=0 DoOrth=F DoCkMO=F.
 Leave Link  401 at Thu Mar  7 09:35:58 2024, MaxMem=  1342177280 cpu:               0.9 elap:               0.1
 (Enter /panfs/pfs.local/work/caricato/m330c584/PANFS-WORK-MCARICATO/gdv_j26/gdv/l502.exe)
 Keep R1 ints in memory in canonical form, NReq=1604536.
 FoFCou: FMM=F IPFlag=           0 FMFlag=           0 FMFlg1=           0
         NFxFlg=           0 DoJE=F BraDBF=F KetDBF=F FulRan=T
         wScrn=  0.000000 ICntrl=       600 IOpCl=  0 I1Cent=           0 NGrid=           0
         NMat0=    1 NMatS0=     55 NMatT0=    0 NMatD0=    1 NMtDS0=    0 NMtDT0=    0
 Symmetry not used in FoFCou.
 Two-electron integral symmetry not used.
 Closed shell SCF:
 Using DIIS extrapolation, IDIIS=  1040.
 NGot=  1342177280 LenX=  1342174286 LenY=  1342173404
 Requested convergence on RMS density matrix=1.00D-08 within 128 cycles.
 Requested convergence on MAX density matrix=1.00D-06.
 Requested convergence on             energy=1.00D-06.
 No special actions if energy rises.

 Cycle   1  Pass 1  IDiag  1:
 E= -14.4096294926800    
 DIIS: error= 2.14D-02 at cycle   1 NSaved=   1.
 NSaved= 1 IEnMin= 1 EnMin= -14.4096294926800     IErMin= 1 ErrMin= 2.14D-02
 ErrMax= 2.14D-02  0.00D+00 EMaxC= 1.00D-01 BMatC= 3.84D-03 BMatP= 3.84D-03
 Rises=F IDIUse=3 WtCom= 7.86D-01 WtEn= 2.14D-01
 Coeff-Com:  0.100D+01
 Coeff-En:   0.100D+01
 Coeff:      0.100D+01
 Gap=     0.229 Goal=   None    Shift=    0.000
 GapD=    0.229 DampG=1.000 DampE=0.500 DampFc=0.5000 IDamp=-1.
 Damping current iteration by 5.00D-01
 RMSDP=2.86D-02 MaxDP=8.83D-02              OVMax= 1.91D-02

 Cycle   2  Pass 1  IDiag  1:
 E= -14.4121536424543     Delta-E=       -0.002524149774 Rises=F Damp=T AM=F Ri=F Fa=F
 DIIS: error= 1.17D-02 at cycle   2 NSaved=   2.
 NSaved= 2 IEnMin= 2 EnMin= -14.4121536424543     IErMin= 2 ErrMin= 1.17D-02
 ErrMax= 1.17D-02  0.00D+00 EMaxC= 1.00D-01 BMatC= 1.14D-03 BMatP= 3.84D-03
 Rises=F IDIUse=3 WtCom= 8.83D-01 WtEn= 1.17D-01
 Coeff-Com: -0.120D+01 0.220D+01
 Coeff-En:   0.000D+00 0.100D+01
 Coeff:     -0.106D+01 0.206D+01
 Gap=     0.228 Goal=   None    Shift=    0.000
 RMSDP=1.65D-02 MaxDP=5.15D-02 DE=-2.52D-03 OVMax= 2.62D-03

 Cycle   3  Pass 1  IDiag  1:
 E= -14.4149610649993     Delta-E=       -0.002807422545 Rises=F Damp=F AM=F Ri=F Fa=F
 DIIS: error= 2.95D-04 at cycle   3 NSaved=   3.
 NSaved= 3 IEnMin= 3 EnMin= -14.4149610649993     IErMin= 3 ErrMin= 2.95D-04
 ErrMax= 2.95D-04  0.00D+00 EMaxC= 1.00D-01 BMatC= 2.69D-07 BMatP= 1.14D-03
 Rises=F IDIUse=3 WtCom= 9.99D-01 WtEn= 5.07D-04
 Coeff-Com:  0.346D+00-0.650D+00 0.130D+01
 Coeff-En:   0.000D+00 0.000D+00 0.100D+01
 Coeff:      0.346D+00-0.650D+00 0.130D+01
 Gap=     0.228 Goal=   None    Shift=    0.000
 RMSDP=2.78D-04 MaxDP=7.65D-04 DE=-2.81D-03 OVMax= 1.16D-03

 Cycle   4  Pass 1  IDiag  1:
 E= -14.4149625903179     Delta-E=       -0.000001525319 Rises=F Damp=F AM=F Ri=F Fa=F
 DIIS: error= 4.23D-05 at cycle   4 NSaved=   4.
 NSaved= 4 IEnMin= 4 EnMin= -14.4149625903179     IErMin= 4 ErrMin= 4.23D-05
 ErrMax= 4.23D-05  0.00D+00 EMaxC= 1.00D-01 BMatC= 5.51D-09 BMatP= 2.69D-07
 Rises=F IDIUse=1 WtCom= 1.00D+00 WtEn= 0.00D+00
 Coeff-Com: -0.119D+00 0.224D+00-0.576D+00 0.147D+01
 Coeff:     -0.119D+00 0.224D+00-0.576D+00 0.147D+01
 Gap=     0.228 Goal=   None    Shift=    0.000
 RMSDP=6.52D-05 MaxDP=1.91D-04 DE=-1.53D-06 OVMax= 3.05D-04

 Cycle   5  Pass 1  IDiag  1:
 E= -14.4149626493964     Delta-E=       -0.000000059079 Rises=F Damp=F AM=F Ri=F Fa=F
 DIIS: error= 9.68D-07 at cycle   5 NSaved=   5.
 NSaved= 5 IEnMin= 5 EnMin= -14.4149626493964     IErMin= 5 ErrMin= 9.68D-07
 ErrMax= 9.68D-07  0.00D+00 EMaxC= 1.00D-01 BMatC= 2.54D-12 BMatP= 5.51D-09
 Rises=F IDIUse=1 WtCom= 1.00D+00 WtEn= 0.00D+00
 Coeff-Com:  0.183D-01-0.347D-01 0.901D-01-0.226D+00 0.115D+01
 Coeff:      0.183D-01-0.347D-01 0.901D-01-0.226D+00 0.115D+01
 Gap=     0.228 Goal=   None    Shift=    0.000
 RMSDP=6.33D-07 MaxDP=1.75D-06 DE=-5.91D-08 OVMax= 1.77D-06

 Cycle   6  Pass 1  IDiag  1:
 E= -14.4149626494018     Delta-E=       -0.000000000005 Rises=F Damp=F AM=F Ri=F Fa=F
 DIIS: error= 8.63D-08 at cycle   6 NSaved=   6.
 NSaved= 6 IEnMin= 6 EnMin= -14.4149626494018     IErMin= 6 ErrMin= 8.63D-08
 ErrMax= 8.63D-08  0.00D+00 EMaxC= 1.00D-01 BMatC= 3.87D-14 BMatP= 2.54D-12
 Rises=F IDIUse=1 WtCom= 1.00D+00 WtEn= 0.00D+00
 Coeff-Com: -0.127D-03 0.245D-03-0.597D-03 0.912D-03 0.685D-02 0.993D+00
 Coeff:     -0.127D-03 0.245D-03-0.597D-03 0.912D-03 0.685D-02 0.993D+00
 Gap=     0.228 Goal=   None    Shift=    0.000
 RMSDP=8.11D-08 MaxDP=2.42D-07 DE=-5.39D-12 OVMax= 1.52D-07

 Cycle   7  Pass 1  IDiag  1:
 E= -14.4149626494019     Delta-E=        0.000000000000 Rises=F Damp=F AM=F Ri=F Fa=F
 DIIS: error= 4.95D-10 at cycle   7 NSaved=   7.
 NSaved= 7 IEnMin= 7 EnMin= -14.4149626494019     IErMin= 7 ErrMin= 4.95D-10
 ErrMax= 4.95D-10  0.00D+00 EMaxC= 1.00D-01 BMatC= 1.27D-18 BMatP= 3.87D-14
 Rises=F IDIUse=1 WtCom= 1.00D+00 WtEn= 0.00D+00
 Coeff-Com: -0.769D-07 0.150D-06-0.145D-05 0.554D-05-0.266D-04 0.394D-02
 Coeff-Com:  0.996D+00
 Coeff:     -0.769D-07 0.150D-06-0.145D-05 0.554D-05-0.266D-04 0.394D-02
 Coeff:      0.996D+00
 Gap=     0.228 Goal=   None    Shift=    0.000
 RMSDP=3.54D-10 MaxDP=1.02D-09 DE=-7.82D-14 OVMax= 4.81D-10

 SCF Done:  E(RHF) =  -14.4149626494     A.U. after    7 cycles
            NFock=  7  Conv=0.35D-09     -V/T= 1.9722
 KE=          14.827817 PE=         -41.713512 EE=           8.141100
 Leave Link  502 at Thu Mar  7 09:35:59 2024, MaxMem=  1342177280 cpu:               0.3 elap:               0.1
 (Enter /panfs/pfs.local/work/caricato/m330c584/PANFS-WORK-MCARICATO/gdv_j26/gdv/l801.exe)
 Windowed orbitals will be sorted by symmetry type.
 ExpMin= 4.81D-02 ExpMax= 1.61D+01 ExpMxC= 1.61D+01 IAcc=3 IRadAn=         5 AccDes= 0.00D+00
 HarFok:  IExCor=    2005 AccDes= 0.00D+00 IRadAn=         5 IDoV=-2 UseB2=F ITyADJ=14 ICtDFT= 12500011
 Largest valence mixing into a core orbital is  2.50D-03
 Largest core mixing into a valence orbital is  1.92D-03
 Range of M.O.s used for correlation:     3    10
 NBasis=    10 NAE=     3 NBE=     3 NFC=     2 NFV=     0
 NROrb=      8 NOA=     1 NOB=     1 NVA=     7 NVB=     7

 **** Warning!!: The largest alpha MO coefficient is  0.10188659D+02

 Leave Link  801 at Thu Mar  7 09:35:59 2024, MaxMem=  1342177280 cpu:               0.3 elap:               0.8
 (Enter /panfs/pfs.local/work/caricato/m330c584/PANFS-WORK-MCARICATO/gdv_j26/gdv/l804.exe)
 Closed-shell transformation, MDV=    1342177280 ITran=4 ISComp=1.
 Unit  1 TFree=            22 TCopy=        283576.
 Semi-Direct transformation.
 ModeAB=             2 MOrb=               1 LenV=      1341985203
 LASXX=            196 LTotXX=           196 LenRXX=           196
 LTotAB=           281 MaxLAS=           440 LenRXY=           440
 NonZer=           536 LenScr=        785920 LnRSAI=             0
 LnScr1=             0 LExtra=             0 Total=         786556
 MaxDsk=            -1 SrtSym=           F ITran=              4
 DoSDTr:  NPSUse= 10
 JobTyp=0 Pass  1:  I=   1 to   1.
 (rs|ai) integrals will be sorted in core.
 Complete sort for first half transformation.
 First half transformation complete.
 Complete sort for second half transformation.
 Second half transformation complete.
 Spin components of T(2) and E(2):
     alpha-alpha T2 =       0.0000000000D+00 E2=      0.0000000000D+00
     alpha-beta  T2 =       0.4418785198D-01 E2=     -0.2289682906D-01
     beta-beta   T2 =       0.0000000000D+00 E2=      0.0000000000D+00
 ANorm=    0.1021855103D+01
 E2 =    -0.2289682906D-01 EUMP2 =    -0.14437859478463D+02
 Leave Link  804 at Thu Mar  7 09:36:00 2024, MaxMem=  1342177280 cpu:               0.1 elap:               0.3
 (Enter /panfs/pfs.local/work/caricato/m330c584/PANFS-WORK-MCARICATO/gdv_j26/gdv/l913.exe)
 CIDS:  MDV=  1342177280.
 Frozen-core window:  NFC=   2 NFV=   0.
 IFCWin=0 IBDFC=1 NFBD=     0     0 NFCmp=     0     0 NFFFC=     0     0
 Using DD3R+UMP44R for 1st iteration.
 Using DD4RQ for 2nd and later iterations.
 Keep R2 and R3 ints in memory in canonical form, NReq=1608430.
 FoFCou: FMM=F IPFlag=           0 FMFlag=           0 FMFlg1=           0
         NFxFlg=           0 DoJE=F BraDBF=F KetDBF=F FulRan=T
         wScrn=  0.000000 ICntrl=       600 IOpCl=  0 I1Cent=           0 NGrid=           0
         NMat0=    1 NMatS0=     55 NMatT0=    0 NMatD0=    1 NMtDS0=    0 NMtDT0=    0
 Symmetry not used in FoFCou.
 Two-electron integral symmetry not used.
 CIDS: In Core Option IDoMem=           1.
 Coupled Cluster theory with single and double substitutions
 ===========================================================
 Iterations=  50 Convergence= 0.100D-06
 Produce multiple copies of IABC integrals
 Iteration Nr.   1
 **********************
 DD1Dir will call FoFMem   1 times, MxPair=         2
 NAB=     1 NAA=     0 NBB=     0.
 MP4(R+Q)=  0.10117617D-02
 Maximum subspace dimension=  5
 A-vector RMS=  1.9157494D-02 Max=  8.0299479D-02 conv= 1.00D-05.
 RLE energy=       -0.0501214572
 E3=       -0.13448735D-01        EUMP3=      -0.14451308214D+02
 E4(DQ)=   -0.80851290D-02        UMP4(DQ)=   -0.14459393343D+02
 E4(SDQ)=  -0.80861460D-02        UMP4(SDQ)=  -0.14459394360D+02
 VARIATIONAL ENERGIES WITH THE FIRST-ORDER WAVEFUNCTION:
 DE(Corr)= -0.35333771E-01 E(Corr)=     -14.450296420    
 NORM(A)=   0.11123863D+01
 Iteration Nr.   2
 **********************
 DD1Dir will call FoFMem   1 times, MxPair=         2
 NAB=     1 NAA=     0 NBB=     0.
 A-vector RMS=  1.0787420D-02 Max=  2.0387419D-02 conv= 1.00D-05.
 RLE energy=       -0.0487895809
 DE(Corr)= -0.49789599E-01 E(CORR)=     -14.464752249     Delta=-1.45D-02
 NORM(A)=   0.11221320D+01
 Iteration Nr.   3
 **********************
 DD1Dir will call FoFMem   1 times, MxPair=         2
 NAB=     1 NAA=     0 NBB=     0.
 A-vector RMS=  7.7996703D-03 Max=  2.0197650D-02 conv= 1.00D-05.
 RLE energy=       -0.0610233260
 DE(Corr)= -0.51206414E-01 E(CORR)=     -14.466169064     Delta=-1.42D-03
 NORM(A)=   0.11993816D+01
 Iteration Nr.   4
 **********************
 DD1Dir will call FoFMem   1 times, MxPair=         2
 NAB=     1 NAA=     0 NBB=     0.
 A-vector RMS=  5.9849138D-03 Max=  2.1091462D-02 conv= 1.00D-05.
 RLE energy=       -0.0506924742
 DE(Corr)= -0.57735420E-01 E(CORR)=     -14.472698069     Delta=-6.53D-03
 NORM(A)=   0.11362113D+01
 Iteration Nr.   5
 **********************
 DD1Dir will call FoFMem   1 times, MxPair=         2
 NAB=     1 NAA=     0 NBB=     0.
 A-vector RMS=  3.3249454D-03 Max=  1.2586524D-02 conv= 1.00D-05.
 RLE energy=       -0.0552917800
 DE(Corr)= -0.52382234E-01 E(CORR)=     -14.467344884     Delta= 5.35D-03
 NORM(A)=   0.11671056D+01
 Iteration Nr.   6
 **********************
 DD1Dir will call FoFMem   1 times, MxPair=         2
 NAB=     1 NAA=     0 NBB=     0.
 A-vector RMS=  8.2371058D-04 Max=  2.4468351D-03 conv= 1.00D-05.
 RLE energy=       -0.0548668243
 DE(Corr)= -0.55027750E-01 E(CORR)=     -14.469990399     Delta=-2.65D-03
 NORM(A)=   0.11635046D+01
 Iteration Nr.   7
 **********************
 DD1Dir will call FoFMem   1 times, MxPair=         2
 NAB=     1 NAA=     0 NBB=     0.
 A-vector RMS=  2.1994494D-04 Max=  8.4718797D-04 conv= 1.00D-05.
 RLE energy=       -0.0545497695
 DE(Corr)= -0.54748142E-01 E(CORR)=     -14.469710791     Delta= 2.80D-04
 NORM(A)=   0.11614108D+01
 Iteration Nr.   8
 **********************
 DD1Dir will call FoFMem   1 times, MxPair=         2
 NAB=     1 NAA=     0 NBB=     0.
 A-vector RMS=  4.8785891D-05 Max=  1.7836227D-04 conv= 1.00D-05.
 RLE energy=       -0.0546079222
 DE(Corr)= -0.54574740E-01 E(CORR)=     -14.469537389     Delta= 1.73D-04
 NORM(A)=   0.11617972D+01
 Iteration Nr.   9
 **********************
 DD1Dir will call FoFMem   1 times, MxPair=         2
 NAB=     1 NAA=     0 NBB=     0.
 A-vector RMS=  2.3039859D-06 Max=  1.0026542D-05 conv= 1.00D-05.
 RLE energy=       -0.0546044424
 DE(Corr)= -0.54606762E-01 E(CORR)=     -14.469569412     Delta=-3.20D-05
 NORM(A)=   0.11617716D+01
 Iteration Nr.  10
 **********************
 DD1Dir will call FoFMem   1 times, MxPair=         2
 NAB=     1 NAA=     0 NBB=     0.
 A-vector RMS=  7.2172484D-07 Max=  2.3488119D-06 conv= 1.00D-05.
 RLE energy=       -0.0546051433
 DE(Corr)= -0.54604712E-01 E(CORR)=     -14.469567361     Delta= 2.05D-06
 NORM(A)=   0.11617768D+01
 Iteration Nr.  11
 **********************
 DD1Dir will call FoFMem   1 times, MxPair=         2
 NAB=     1 NAA=     0 NBB=     0.
 A-vector RMS=  2.7783656D-08 Max=  1.1272666D-07 conv= 1.00D-05.
 RLE energy=       -0.0546051118
 DE(Corr)= -0.54605128E-01 E(CORR)=     -14.469567777     Delta=-4.16D-07
 NORM(A)=   0.11617766D+01
 Iteration Nr.  12
 **********************
 DD1Dir will call FoFMem   1 times, MxPair=         2
 NAB=     1 NAA=     0 NBB=     0.
 A-vector RMS=  3.9107380D-09 Max=  1.1349020D-08 conv= 1.00D-05.
 RLE energy=       -0.0546051072
 DE(Corr)= -0.54605110E-01 E(CORR)=     -14.469567760     Delta= 1.76D-08
 NORM(A)=   0.11617766D+01
 CI/CC converged in   12 iterations to DelEn= 1.76D-08 Conv= 1.00D-07 ErrA1= 3.91D-09 Conv= 1.00D-05
 Wavefunction amplitudes converged. E(Corr)=     -14.469567760    
 Dominant configurations:
 ***********************
 Spin Case        I    J    A    B          Value
   ABAB           3    3    4    4      -0.390364D+00
   ABAB           3    3    5    5      -0.390364D+00
   ABAB           3    3    6    6      -0.205597D+00
 Largest amplitude= 3.90D-01
 Discarding MO integrals.
 Leave Link  913 at Thu Mar  7 09:36:01 2024, MaxMem=  1342177280 cpu:               0.3 elap:               0.8
 (Enter /panfs/pfs.local/work/caricato/m330c584/PANFS-WORK-MCARICATO/gdv_j26/gdv/l601.exe)
 Copying SCF densities to generalized density rwf, IOpCl= 0 IROHF=0.

 **********************************************************************

            Population analysis using the SCF Density.

 **********************************************************************

 Alpha  occ. eigenvalues --       -2.65663      -2.45220      -0.19292
 Alpha virt. eigenvalues --        0.03497       0.03497       0.07255       0.30817       0.32756
 Alpha virt. eigenvalues --        0.32756       1.46039
          Condensed to atoms (all electrons):
               1          2
     1  Li   2.541454   0.458546
     2  Li   0.458546   2.541454
 Mulliken charges:
               1
     1  Li   0.000000
     2  Li   0.000000
 Sum of Mulliken charges =   0.00000
 Mulliken charges with hydrogens summed into heavy atoms:
               1
     1  Li   0.000000
     2  Li   0.000000
 Electronic spatial extent (au):  <R**2>=             41.7551
 Charge=              0.0000 electrons
 Dipole moment (field-independent basis, Debye):
    X=              0.0000    Y=              0.0000    Z=              0.0000  Tot=              0.0000
 Quadrupole moment (field-independent basis, Debye-Ang):
   XX=            -14.3889   YY=            -12.1688   ZZ=            -12.1688
   XY=              0.0000   XZ=              0.0000   YZ=              0.0000
 Traceless Quadrupole moment (field-independent basis, Debye-Ang):
   XX=             -1.4801   YY=              0.7400   ZZ=              0.7400
   XY=              0.0000   XZ=              0.0000   YZ=              0.0000
 Octapole moment (field-independent basis, Debye-Ang**2):
  XXX=            -23.7416  YYY=              0.0000  ZZZ=              0.0000  XYY=             -6.6928
  XXY=              0.0000  XXZ=              0.0000  XZZ=             -6.6928  YZZ=              0.0000
  YYZ=              0.0000  XYZ=              0.0000
 Hexadecapole moment (field-independent basis, Debye-Ang**3):
 XXXX=           -102.3542 YYYY=            -42.1262 ZZZZ=            -42.1262 XXXY=              0.0000
 XXXZ=              0.0000 YYYX=              0.0000 YYYZ=              0.0000 ZZZX=              0.0000
 ZZZY=              0.0000 XXYY=            -23.0430 XXZZ=            -23.0430 YYZZ=            -14.0421
 XXYZ=              0.0000 YYXZ=              0.0000 ZZXY=              0.0000
 N-N=           4.329632 E-N=         -41.713512  KE=          14.827817
 Leave Link  601 at Thu Mar  7 09:36:01 2024, MaxMem=  1342177280 cpu:               0.0 elap:               0.0
 (Enter /panfs/pfs.local/work/caricato/m330c584/PANFS-WORK-MCARICATO/gdv_j26/gdv/l9999.exe)
 Unable to Open any file for archive entry.
 1\1\GINC-R05R20N01\SP\RCCSD-FC\STO-3G\Li2\T566P276\07-Mar-2024\0\\#p c
 csd/STO-3G sp nosymm\\test1\\0,1\Li,0,0.,0.,0.\Li,0,1.1,0.,0.\\Version
 =ES64L-GDVRevJ.26+\HF=-14.4149626\MP2=-14.4378595\MP3=-14.4513082\MP4D
 =-14.4604051\MP4DQ=-14.4593933\MP4SDQ=-14.4593944\CCSD=-14.4695678\RMS
 D=3.539e-10\PG=D*H [C*(Li1.Li1)]\\@
 The archive entry for this job was punched.


 NATURE WILL TELL YOU A DIRECT LIE IF SHE CAN.

                                -- CHARLES DARWIN
 Job cpu time:       0 days  0 hours  0 minutes  2.4 seconds.
 Elapsed time:       0 days  0 hours  0 minutes  2.5 seconds.
 File lengths (MBytes):  RWF=     13 Int=      0 D2E=      0 Chk=      1 Scr=      1
 Normal termination of Gaussian DV at Thu Mar  7 09:36:01 2024.
