 Entering Gaussian System, Link 0=gdv
 Input=H2_ccsd.gjf
 Output=H2_ccsd.log
 Initial command:
 /Volumes/gaussian/gdv_j19/gdv/l1.exe "/Users/taylorparsons/scratch/Gau-56955.inp" -scrdir="/Users/taylorparsons/scratch,107374182400" -exedir="/Volumes/gaussian/ccsd_project/exe-dir:/Volumes/gaussian/gdv_j19/gdv/bsd:/Volumes/gaussian/gdv_j19/gdv/local:/Volumes/gaussian/gdv_j19/gdv/extras:/Volumes/gaussian/gdv_j19/gdv"
 Entering Link 1 = /Volumes/gaussian/gdv_j19/gdv/l1.exe PID=     56957.
  
 Copyright (c) 1988-2021, Gaussian, Inc.  All Rights Reserved.
  
 This is the private, development version of
 the Gaussian(R) DV system of programs. It is based on
 the Gaussian(R) 16 system (copyright 2016, Gaussian, Inc.),
 the Gaussian(R) 09 system (copyright 2009, Gaussian, Inc.),
 the Gaussian(R) 03 system (copyright 2003, Gaussian, Inc.),
 the Gaussian(R) 98 system (copyright 1998, Gaussian, Inc.),
 the Gaussian(R) 94 system (copyright 1995, Gaussian, Inc.),
 the Gaussian 92(TM) system (copyright 1992, Gaussian, Inc.),
 the Gaussian 90(TM) system (copyright 1990, Gaussian, Inc.),
 the Gaussian 88(TM) system (copyright 1988, Gaussian, Inc.),
 the Gaussian 86(TM) system (copyright 1986, Carnegie Mellon
 University), and the Gaussian 82(TM) system (copyright 1983,
 Carnegie Mellon University). Gaussian is a federally registered
 trademark of Gaussian, Inc.
  
 This software contains proprietary and confidential information,
 including trade secrets, belonging to Gaussian, Inc.
  
 This software is provided under written license and may be
 used, copied, transmitted, or stored only in accord with that
 written license.
  
 The following legend is applicable only to US Government
 contracts under FAR:
  
                    RESTRICTED RIGHTS LEGEND
  
 Use, reproduction and disclosure by the US Government is
 subject to restrictions as set forth in subparagraphs (a)
 and (c) of the Commercial Computer Software - Restricted
 Rights clause in FAR 52.227-19.
  
 Gaussian, Inc.
 340 Quinnipiac St., Bldg. 40, Wallingford CT 06492
  
  
 ---------------------------------------------------------------
 Warning -- This program may not be used in any manner that
 competes with the business of Gaussian, Inc. or will provide
 assistance to any competitor of Gaussian, Inc.  The licensee
 of this program is prohibited from giving any competitor of
 Gaussian, Inc. access to this program.  By using this program,
 the user acknowledges that Gaussian, Inc. is engaged in the
 business of creating and licensing software in the field of
 computational chemistry and represents and warrants to the
 licensee that it is not a competitor of Gaussian, Inc. and that
 it will not use this program in any manner prohibited above.
 ---------------------------------------------------------------
  

 Cite this work as:
 Gaussian Development Version, Revision J.19,
 M. J. Frisch, G. W. Trucks, H. B. Schlegel, G. E. Scuseria, 
 M. A. Robb, J. R. Cheeseman, G. Scalmani, V. Barone, 
 G. A. Petersson, H. Nakatsuji, X. Li, A. V. Marenich, M. Caricato, 
 J. Bloino, B. G. Janesko, J. Zheng, R. Gomperts, B. Mennucci, 
 H. P. Hratchian, J. V. Ortiz, A. F. Izmaylov, J. L. Sonnenberg, 
 D. Williams-Young, F. Ding, F. Lipparini, F. Egidi, J. Goings, 
 B. Peng, A. Petrone, T. Henderson, D. Ranasinghe, V. G. Zakrzewski, 
 J. Gao, N. Rega, G. Zheng, W. Liang, M. Hada, M. Ehara, K. Toyota, 
 R. Fukuda, J. Hasegawa, M. Ishida, T. Nakajima, Y. Honda, O. Kitao, 
 H. Nakai, T. Vreven, K. Throssell, J. A. Montgomery, Jr., 
 J. E. Peralta, F. Ogliaro, M. J. Bearpark, J. J. Heyd, 
 E. N. Brothers, K. N. Kudin, V. N. Staroverov, T. A. Keith, 
 R. Kobayashi, J. Normand, K. Raghavachari, A. P. Rendell, 
 J. C. Burant, S. S. Iyengar, J. Tomasi, M. Cossi, J. M. Millam, 
 M. Klene, C. Adamo, R. Cammi, J. W. Ochterski, R. L. Martin, 
 K. Morokuma, O. Farkas, J. B. Foresman, and D. J. Fox, 
 Gaussian, Inc., Wallingford CT, 2020.
 
 ******************************************
 Gaussian DV:  EM64M-GDVRevJ.19 27-Nov-2021
                12-Jul-2022 
 ******************************************
 %mem=10gb
 %nproc=3
 Will use up to    3 processors via shared memory.
 %chk=H2_ccsd.chk
 -------------
 #p ccsd/3-21g
 -------------
 1/37=210000000,38=1,172=1/1;
 2/12=2/2;
 3/5=5,11=9,25=1,30=1/1,2,3;
 4//1;
 5/5=2,38=5/2;
 8/6=4,9=120000,10=1/1,4;
 9/5=7/13;
 6/7=2,8=2,9=2,10=2/1;
 99/5=1,9=1/99;
 Leave Link    1 at Tue Jul 12 10:22:26 2022, MaxMem=  1342177280 cpu:               0.4 elap:               0.2
 (Enter /Volumes/gaussian/gdv_j19/gdv/l101.exe)
 -----
 test1
 -----
 Symbolic Z-matrix:
 Charge =  0 Multiplicity = 1
 H                     0.        0.        0. 
 H                     0.74      0.        0. 
 
 ITRead=  0  0
 MicOpt= -1 -1
 NAtoms=      2 NQM=        2 NQMF=       0 NMMI=      0 NMMIF=      0
                NMic=       0 NMicF=      0.
                    Isotopes and Nuclear Properties:
 (Nuclear quadrupole moments (NQMom) in fm**2, nuclear magnetic moments (NMagM)
  in nuclear magnetons)

  Atom         1           2
 IAtWgt=           1           1
 AtmWgt=   1.0078250   1.0078250
 NucSpn=           1           1
 AtZEff=  -0.0000000  -0.0000000
 NQMom=    0.0000000   0.0000000
 NMagM=    2.7928460   2.7928460
 AtZNuc=   1.0000000   1.0000000
 Leave Link  101 at Tue Jul 12 10:22:26 2022, MaxMem=  1342177280 cpu:               0.7 elap:               0.2
 (Enter /Volumes/gaussian/gdv_j19/gdv/l202.exe)
                          Input orientation:                          
 ---------------------------------------------------------------------
 Center     Atomic      Atomic             Coordinates (Angstroms)
 Number     Number       Type             X           Y           Z
 ---------------------------------------------------------------------
      1          1           0        0.000000    0.000000    0.000000
      2          1           0        0.740000    0.000000    0.000000
 ---------------------------------------------------------------------
 Stoichiometry    H2
 Framework group  D*H[C*(H.H)]
 Deg. of freedom     1
 Full point group                 D*H     NOp   8
 Largest Abelian subgroup         D2H     NOp   8
 Largest concise Abelian subgroup C2      NOp   2
                         Standard orientation:                         
 ---------------------------------------------------------------------
 Center     Atomic      Atomic             Coordinates (Angstroms)
 Number     Number       Type             X           Y           Z
 ---------------------------------------------------------------------
      1          1           0        0.000000    0.000000    0.370000
      2          1           0        0.000000    0.000000   -0.370000
 ---------------------------------------------------------------------
 Rotational constants (GHZ):           0.0000000        1831.4649542        1831.4649542
 Leave Link  202 at Tue Jul 12 10:22:26 2022, MaxMem=  1342177280 cpu:               0.0 elap:               0.0
 (Enter /Volumes/gaussian/gdv_j19/gdv/l301.exe)
 Standard basis: 3-21G (6D, 7F)
 Ernie: Thresh=  0.10000D-02 Tol=  0.10000D-05 Strict=F.
 There are     2 symmetry adapted cartesian basis functions of AG  symmetry.
 There are     0 symmetry adapted cartesian basis functions of B1G symmetry.
 There are     0 symmetry adapted cartesian basis functions of B2G symmetry.
 There are     0 symmetry adapted cartesian basis functions of B3G symmetry.
 There are     0 symmetry adapted cartesian basis functions of AU  symmetry.
 There are     2 symmetry adapted cartesian basis functions of B1U symmetry.
 There are     0 symmetry adapted cartesian basis functions of B2U symmetry.
 There are     0 symmetry adapted cartesian basis functions of B3U symmetry.
 There are     2 symmetry adapted basis functions of AG  symmetry.
 There are     0 symmetry adapted basis functions of B1G symmetry.
 There are     0 symmetry adapted basis functions of B2G symmetry.
 There are     0 symmetry adapted basis functions of B3G symmetry.
 There are     0 symmetry adapted basis functions of AU  symmetry.
 There are     2 symmetry adapted basis functions of B1U symmetry.
 There are     0 symmetry adapted basis functions of B2U symmetry.
 There are     0 symmetry adapted basis functions of B3U symmetry.
     4 basis functions,     6 primitive gaussians,     4 cartesian basis functions
     1 alpha electrons        1 beta electrons
       nuclear repulsion energy         0.7151043391 Hartrees.
 IExCor=         0 DFT=F Ex=HF Corr=None N6=None ScaHFX=  1.000000
 ScaDFX=  1.000000  1.000000  1.000000  1.000000  1.000000  0.000000
 ScaDFX=  0.000000  0.000000  0.000000  0.000000  0.000000  0.000000
 IRadAn=      5 IRanWt=     -1 IRanGd=            0 ICorTp=0 IEmpDi=  4
 NAtoms=    2 NActive=    2 NUniq=    1 SFac= 4.00D+00 NAtFMM=   60 NAOKFM=F Big=F
 Integral buffers will be    131072 words long.
 Raffenetti 1 integral format.
 Two-electron integral symmetry is turned on.
 Leave Link  301 at Tue Jul 12 10:22:26 2022, MaxMem=  1342177280 cpu:               0.2 elap:               0.1
 (Enter /Volumes/gaussian/gdv_j19/gdv/l302.exe)
 NPDir=0 NMtPBC=     1 NCelOv=     1 NCel=       1 NClECP=     1 NCelD=      1
         NCelK=      1 NCelE2=     1 NClLst=     1 CellRange=     0.0.
 One-electron integrals computed using PRISM.
 One-electron integral symmetry used in STVInt
 NBasis=     4 RedAO= T EigKep=  1.08D-01  NBF=     2     0     0     0     0     2     0     0
 NBsUse=     4 1.00D-06 EigRej= -1.00D+00 NBFU=     2     0     0     0     0     2     0     0
 Leave Link  302 at Tue Jul 12 10:22:26 2022, MaxMem=  1342177280 cpu:               0.2 elap:               0.1
 (Enter /Volumes/gaussian/gdv_j19/gdv/l303.exe)
 DipDrv:  MaxL=1.
 Leave Link  303 at Tue Jul 12 10:22:27 2022, MaxMem=  1342177280 cpu:               0.1 elap:               0.0
 (Enter /Volumes/gaussian/gdv_j19/gdv/l401.exe)
 ExpMin= 1.83D-01 ExpMax= 5.45D+00 ExpMxC= 5.45D+00 IAcc=3 IRadAn=         5 AccDes= 0.00D+00
 Harris functional with IExCor= 2005 and IRadAn=       5 diagonalized for initial guess.
 HarFok:  IExCor=    2005 AccDes= 0.00D+00 IRadAn=         5 IDoV= 1 UseB2=F ITyADJ=14 ICtDFT=  3500011
 FoFCou: FMM=F IPFlag=           0 FMFlag=      100000 FMFlg1=           0
         NFxFlg=           0 DoJE=T BraDBF=F KetDBF=T FulRan=T
         wScrn=  0.000000 ICntrl=       500 IOpCl=  0 I1Cent=   200000004 NGrid=           0
         NMat0=    1 NMatS0=      1 NMatT0=    0 NMatD0=    1 NMtDS0=    0 NMtDT0=    0
 Petite list used in FoFCou.
 Harris En= -1.17608320540186    
 JPrj=0 DoOrth=F DoCkMO=F.
 Initial guess orbital symmetries:
       Occupied  (SGG)
       Virtual   (SGU) (SGG) (SGU)
 The electronic state of the initial guess is 1-SGG.
 Leave Link  401 at Tue Jul 12 10:22:27 2022, MaxMem=  1342177280 cpu:               0.2 elap:               0.1
 (Enter /Volumes/gaussian/gdv_j19/gdv/l502.exe)
 Keep R1 ints in memory in symmetry-blocked form, NReq=801506.
 FoFCou: FMM=F IPFlag=           0 FMFlag=           0 FMFlg1=           0
         NFxFlg=           0 DoJE=F BraDBF=F KetDBF=F FulRan=T
         wScrn=  0.000000 ICntrl=       600 IOpCl=  0 I1Cent=           0 NGrid=           0
         NMat0=    1 NMatS0=     10 NMatT0=    0 NMatD0=    1 NMtDS0=    0 NMtDT0=    0
 Petite list used in FoFCou.
 Closed shell SCF:
 Using DIIS extrapolation, IDIIS=  1040.
 NGot=  1342177280 LenX=  1342175525 LenY=  1342174643
 Requested convergence on RMS density matrix=1.00D-08 within 128 cycles.
 Requested convergence on MAX density matrix=1.00D-06.
 Requested convergence on             energy=1.00D-06.
 No special actions if energy rises.

 Cycle   1  Pass 1  IDiag  1:
 E= -1.12066003609334    
 DIIS: error= 1.92D-02 at cycle   1 NSaved=   1.
 NSaved= 1 IEnMin= 1 EnMin= -1.12066003609334     IErMin= 1 ErrMin= 1.92D-02
 ErrMax= 1.92D-02  0.00D+00 EMaxC= 1.00D-01 BMatC= 1.47D-03 BMatP= 1.47D-03
 IDIUse=3 WtCom= 8.08D-01 WtEn= 1.92D-01
 Coeff-Com:  0.100D+01
 Coeff-En:   0.100D+01
 Coeff:      0.100D+01
 Gap=     0.862 Goal=   None    Shift=    0.000
 GapD=    0.862 DampG=2.000 DampE=0.500 DampFc=1.0000 IDamp=-1.
 RMSDP=7.90D-03 MaxDP=1.20D-02              OVMax= 0.00D+00

 Cycle   2  Pass 1  IDiag  1:
 E= -1.12289229584761     Delta-E=       -0.002232259754 Rises=F Damp=F
 DIIS: error= 2.79D-03 at cycle   2 NSaved=   2.
 NSaved= 2 IEnMin= 2 EnMin= -1.12289229584761     IErMin= 2 ErrMin= 2.79D-03
 ErrMax= 2.79D-03  0.00D+00 EMaxC= 1.00D-01 BMatC= 3.10D-05 BMatP= 1.47D-03
 IDIUse=3 WtCom= 9.72D-01 WtEn= 2.79D-02
 Coeff-Com: -0.170D+00 0.117D+01
 Coeff-En:   0.000D+00 0.100D+01
 Coeff:     -0.165D+00 0.117D+01
 Gap=     0.857 Goal=   None    Shift=    0.000
 RMSDP=1.33D-03 MaxDP=1.96D-03 DE=-2.23D-03 OVMax= 0.00D+00

 Cycle   3  Pass 1  IDiag  1:
 E= -1.12294025840762     Delta-E=       -0.000047962560 Rises=F Damp=F
 DIIS: error= 8.34D-06 at cycle   3 NSaved=   3.
 NSaved= 3 IEnMin= 3 EnMin= -1.12294025840762     IErMin= 3 ErrMin= 8.34D-06
 ErrMax= 8.34D-06  0.00D+00 EMaxC= 1.00D-01 BMatC= 2.78D-10 BMatP= 3.10D-05
 IDIUse=1 WtCom= 1.00D+00 WtEn= 0.00D+00
 Large coefficients: NSaved=  3 BigCof=    0.00 CofMax=   10.00 Det=-6.78D-21
 Inversion failed.  Reducing to  2 matrices.
 Coeff-Com: -0.300D-02 0.100D+01
 Coeff:     -0.300D-02 0.100D+01
 Gap=     0.857 Goal=   None    Shift=    0.000
 RMSDP=3.99D-06 MaxDP=5.87D-06 DE=-4.80D-05 OVMax= 0.00D+00

 Cycle   4  Pass 1  IDiag  1:
 E= -1.12294025883729     Delta-E=       -0.000000000430 Rises=F Damp=F
 DIIS: error= 1.22D-09 at cycle   4 NSaved=   3.
 NSaved= 3 IEnMin= 3 EnMin= -1.12294025883729     IErMin= 3 ErrMin= 1.22D-09
 ErrMax= 1.22D-09  0.00D+00 EMaxC= 1.00D-01 BMatC= 5.94D-18 BMatP= 2.78D-10
 IDIUse=1 WtCom= 1.00D+00 WtEn= 0.00D+00
 Large coefficients: NSaved=  3 BigCof=    0.00 CofMax=   10.00 Det=-5.17D-26
 Inversion failed.  Reducing to  2 matrices.
 Coeff-Com:  0.146D-03 0.100D+01
 Coeff:      0.146D-03 0.100D+01
 Gap=     0.857 Goal=   None    Shift=    0.000
 RMSDP=5.83D-10 MaxDP=8.57D-10 DE=-4.30D-10 OVMax= 0.00D+00

 SCF Done:  E(RHF) =  -1.12294025884     A.U. after    4 cycles
            NFock=  4  Conv=0.58D-09     -V/T= 2.0064
 KE= 1.115832424068D+00 PE=-3.606645012588D+00 EE= 6.527679906014D-01
 Leave Link  502 at Tue Jul 12 10:22:27 2022, MaxMem=  1342177280 cpu:               0.2 elap:               0.1
 (Enter /Volumes/gaussian/gdv_j19/gdv/l801.exe)
 Windowed orbitals will be sorted by symmetry type.
 Range of M.O.s used for correlation:     1     4
 NBasis=     4 NAE=     1 NBE=     1 NFC=     0 NFV=     0
 NROrb=      4 NOA=     1 NOB=     1 NVA=     3 NVB=     3
 Leave Link  801 at Tue Jul 12 10:22:27 2022, MaxMem=  1342177280 cpu:               0.1 elap:               0.0
 (Enter /Volumes/gaussian/gdv_j19/gdv/l804.exe)
 Closed-shell transformation, MDV=  1342177280 ITran=4 ISComp=2.
 Unit  1 TFree=          1913 TCopy=           646.
 Semi-Direct transformation.
 ModeAB=           4 MOrb=             1 LenV=    1342085700
 LASXX=           10 LTotXX=          10 LenRXX=          29
 LTotAB=          19 MaxLAS=          24 LenRXY=           0
 NonZer=          39 LenScr=      785920 LnRSAI=          24
 LnScr1=      785920 LExtra=      233048 Total=      1804941
 MaxDsk=214748364800 SrtSym=           T ITran=            4
 DoSDTr:  NPSUse=  3
 JobTyp=0 Pass  1:  I=   1 to   1.
 (rs|ai) integrals will be sorted in core.
 Complete sort for first half transformation.
 First half transformation complete.
 Complete sort for second half transformation.
 Second half transformation complete.
 Spin components of T(2) and E(2):
     alpha-alpha T2 =       0.0000000000D+00 E2=      0.0000000000D+00
     alpha-beta  T2 =       0.6531331974D-02 E2=     -0.1731305912D-01
     beta-beta   T2 =       0.0000000000D+00 E2=      0.0000000000D+00
 ANorm=    0.1003260351D+01
 E2 =    -0.1731305912D-01 EUMP2 =    -0.11402533179601D+01
 Leave Link  804 at Tue Jul 12 10:22:27 2022, MaxMem=  1342177280 cpu:               0.1 elap:               0.0
 (Enter /Volumes/gaussian/ccsd_project/exe-dir/l913.exe)
 CIDS:  MDV=  1342177280.
 IFCWin=0 IBDFC=1 NFBD=     0     0 NFCmp=     0     0 NFFFC=     0     0
 Using DD3R+UMP44R for 1st iteration.
 Using DD4RQ for 2nd and later iterations.
 Keep R2 and R3 ints in memory in symmetry-blocked form, NReq=803875.
 FoFCou: FMM=F IPFlag=           0 FMFlag=           0 FMFlg1=           0
         NFxFlg=           0 DoJE=F BraDBF=F KetDBF=F FulRan=T
         wScrn=  0.000000 ICntrl=       600 IOpCl=  0 I1Cent=           0 NGrid=           0
         NMat0=    1 NMatS0=     10 NMatT0=    0 NMatD0=    1 NMtDS0=    0 NMtDT0=    0
 Petite list used in FoFCou.
 CIDS: In Core Option IDoMem=           1.
 Coupled Cluster theory with single and double substitutions
 ===========================================================
 Iterations=  50 Convergence= 0.100D-06
 Produce multiple copies of IABC integrals
 Iteration Nr.   1
 **********************
 DD1Dir will call FoFMem   1 times, MxPair=         2
 NAB=     1 NAA=     0 NBB=     0.
 MP4(R+Q)=  0.11307734D-03
 T2 scalar product  6.5313319739860598E-003
 Maximum subspace dimension=  5
 A-vector RMS=  1.2590983D-02 Max=  1.9664528D-02 conv= 1.00D-05.
 RLE energy=       -0.0244762255
 E3=       -0.51811184D-02        EUMP3=      -0.11454344364D+01
 E4(DQ)=   -0.15860172D-02        UMP4(DQ)=   -0.11470204536D+01
 E4(SDQ)=  -0.16186748D-02        UMP4(SDQ)=  -0.11470531112D+01
 VARIATIONAL ENERGIES WITH THE FIRST-ORDER WAVEFUNCTION:
 DE(Corr)= -0.22379867E-01 E(Corr)=     -1.1453201256    
 NORM(A)=   0.10068698D+01
 Iteration Nr.   2
 **********************
 mo scalar  5.1026661160722291E-002
 MO scalar product cids3 first                       0
 DD1Dir will call FoFMem   1 times, MxPair=         2
 NAB=     1 NAA=     0 NBB=     0.
 T2 scalar product  1.3743604539823236E-002
 A-vector RMS=  2.0848352D-03 Max=  2.5239724D-03 conv= 1.00D-05.
 RLE energy=       -0.0248375043
 DE(Corr)= -0.24658998E-01 E(CORR)=     -1.1475992572     Delta=-2.28D-03
 NORM(A)=   0.10072590D+01
 Iteration Nr.   3
 **********************
 mo scalar  5.1026661160722291E-002
 MO scalar product cids3 first                       0
 DD1Dir will call FoFMem   1 times, MxPair=         2
 NAB=     1 NAA=     0 NBB=     0.
 T2 scalar product  1.4501995610470364E-002
 A-vector RMS=  2.0596268D-04 Max=  2.4536018D-04 conv= 1.00D-05.
 RLE energy=       -0.0248820089
 DE(Corr)= -0.24859047E-01 E(CORR)=     -1.1477993061     Delta=-2.00D-04
 NORM(A)=   0.10072966D+01
 Iteration Nr.   4
 **********************
 mo scalar  5.1026661160722291E-002
 MO scalar product cids3 first                       0
 DD1Dir will call FoFMem   1 times, MxPair=         2
 NAB=     1 NAA=     0 NBB=     0.
 T2 scalar product  1.4580087190068631E-002
 A-vector RMS=  1.2019445D-05 Max=  1.5678654D-05 conv= 1.00D-05.
 RLE energy=       -0.0248716604
 DE(Corr)= -0.24875725E-01 E(CORR)=     -1.1478159835     Delta=-1.67D-05
 NORM(A)=   0.10072904D+01
 Iteration Nr.   5
 **********************
 mo scalar  5.1026661160722291E-002
 MO scalar product cids3 first                       0
 DD1Dir will call FoFMem   1 times, MxPair=         2
 NAB=     1 NAA=     0 NBB=     0.
 T2 scalar product  1.4567620335956030E-002
 A-vector RMS=  2.3846595D-06 Max=  3.2580939D-06 conv= 1.00D-05.
 RLE energy=       -0.0248731068
 DE(Corr)= -0.24872491E-01 E(CORR)=     -1.1478127500     Delta= 3.23D-06
 NORM(A)=   0.10072913D+01
 Iteration Nr.   6
 **********************
 mo scalar  5.1026661160722291E-002
 MO scalar product cids3 first                       0
 DD1Dir will call FoFMem   1 times, MxPair=         2
 NAB=     1 NAA=     0 NBB=     0.
 T2 scalar product  1.4569441182470513E-002
 A-vector RMS=  3.0391456D-07 Max=  7.4567075D-07 conv= 1.00D-05.
 RLE energy=       -0.0248728584
 DE(Corr)= -0.24872949E-01 E(CORR)=     -1.1478132083     Delta=-4.58D-07
 NORM(A)=   0.10072911D+01
 Iteration Nr.   7
 **********************
 mo scalar  5.1026661160722291E-002
 MO scalar product cids3 first                       0
 DD1Dir will call FoFMem   1 times, MxPair=         2
 NAB=     1 NAA=     0 NBB=     0.
 T2 scalar product  1.4569106010713428E-002
 A-vector RMS=  2.8374396D-08 Max=  6.0345599D-08 conv= 1.00D-05.
 RLE energy=       -0.0248728758
 DE(Corr)= -0.24872870E-01 E(CORR)=     -1.1478131290     Delta= 7.93D-08
 NORM(A)=   0.10072911D+01
 CI/CC converged in    7 iterations to DelEn= 7.93D-08 Conv= 1.00D-07 ErrA1= 2.84D-08 Conv= 1.00D-05
 Wavefunction amplitudes converged. E(Corr)=     -1.1478131290    
 Largest amplitude= 8.41D-02
 Discarding MO integrals.
 Leave Link  913 at Tue Jul 12 10:22:27 2022, MaxMem=  1342177280 cpu:               0.2 elap:               0.1
 (Enter /Volumes/gaussian/gdv_j19/gdv/l601.exe)
 Copying SCF densities to generalized density rwf, IOpCl= 0 IROHF=0.

 **********************************************************************

            Population analysis using the SCF Density.

 **********************************************************************

 Orbital symmetries:
       Occupied  (SGG)
       Virtual   (SGU) (SGG) (SGU)
 The electronic state is 1-SGG.
 Alpha  occ. eigenvalues --       -0.59264
 Alpha virt. eigenvalues --        0.26419       0.92028       1.52562
          Condensed to atoms (all electrons):
               1          2
     1  H    0.595871   0.404129
     2  H    0.404129   0.595871
 Mulliken charges:
               1
     1  H    0.000000
     2  H    0.000000
 Sum of Mulliken charges =   0.00000
 Mulliken charges with hydrogens summed into heavy atoms:
               1
 Electronic spatial extent (au):  <R**2>=              5.1220
 Charge=              0.0000 electrons
 Dipole moment (field-independent basis, Debye):
    X=              0.0000    Y=              0.0000    Z=              0.0000  Tot=              0.0000
 Quadrupole moment (field-independent basis, Debye-Ang):
   XX=             -2.0011   YY=             -2.0011   ZZ=             -1.5720
   XY=              0.0000   XZ=             -0.0000   YZ=              0.0000
 Traceless Quadrupole moment (field-independent basis, Debye-Ang):
   XX=             -0.1430   YY=             -0.1430   ZZ=              0.2861
   XY=              0.0000   XZ=             -0.0000   YZ=              0.0000
 Octapole moment (field-independent basis, Debye-Ang**2):
  XXX=             -0.0000  YYY=              0.0000  ZZZ=              0.0000  XYY=             -0.0000
  XXY=              0.0000  XXZ=             -0.0000  XZZ=             -0.0000  YZZ=              0.0000
  YYZ=             -0.0000  XYZ=              0.0000
 Hexadecapole moment (field-independent basis, Debye-Ang**3):
 XXXX=             -1.7594 YYYY=             -1.7594 ZZZZ=             -2.6971 XXXY=              0.0000
 XXXZ=              0.0000 YYYX=              0.0000 YYYZ=              0.0000 ZZZX=              0.0000
 ZZZY=              0.0000 XXYY=             -0.5865 XXZZ=             -0.7538 YYZZ=             -0.7538
 XXYZ=              0.0000 YYXZ=              0.0000 ZZXY=              0.0000
 N-N= 7.151043390811D-01 E-N=-3.606645013843D+00  KE= 1.115832424068D+00
 Symmetry AG   KE= 1.115832424068D+00
 Symmetry B1G  KE= 0.000000000000D+00
 Symmetry B2G  KE= 0.000000000000D+00
 Symmetry B3G  KE= 0.000000000000D+00
 Symmetry AU   KE= 0.000000000000D+00
 Symmetry B1U  KE= 2.727328237579D-32
 Symmetry B2U  KE= 0.000000000000D+00
 Symmetry B3U  KE= 0.000000000000D+00
 Leave Link  601 at Tue Jul 12 10:22:27 2022, MaxMem=  1342177280 cpu:               0.1 elap:               0.0
 (Enter /Volumes/gaussian/gdv_j19/gdv/l9999.exe)
 Unable to Open any file for archive entry.
 1\1\GINC-LEXLUTHOR\SP\RCCSD-FC\3-21G\H2\TAYLORPARSONS\12-Jul-2022\0\\#
 p ccsd/3-21g\\test1\\0,1\H,0,0.,0.,0.\H,0,0.74,0.,0.\\Version=EM64M-GD
 VRevJ.19\State=1-SGG\HF=-1.1229403\MP2=-1.1402533\MP3=-1.1454344\MP4D=
 -1.1471335\MP4DQ=-1.1470205\MP4SDQ=-1.1470531\CCSD=-1.1478131\RMSD=5.8
 28e-10\PG=D*H [C*(H1.H1)]\\@
 The archive entry for this job was punched.


 WHEN YOU'VE SEEN ONE NUCLEAR WAR YOU'VE SEEN THEM ALL.
 Job cpu time:       0 days  0 hours  0 minutes  2.9 seconds.
 Elapsed time:       0 days  0 hours  0 minutes  1.0 seconds.
 File lengths (MBytes):  RWF=     19 Int=      0 D2E=      0 Chk=      1 Scr=      1
 Normal termination of Gaussian DV at Tue Jul 12 10:22:27 2022.
